
     Program PWSCF v.6.7MaX starts on 14Jul2026 at 10: 6:19 

     This program is part of the open-source Quantum ESPRESSO suite
     for quantum simulation of materials; please cite
         "P. Giannozzi et al., J. Phys.:Condens. Matter 21 395502 (2009);
         "P. Giannozzi et al., J. Phys.:Condens. Matter 29 465901 (2017);
          URL http://www.quantum-espresso.org", 
     in publications or presentations arising from this work. More details at
     http://www.quantum-espresso.org/quote

     Parallel version (MPI), running on     1 processors

     MPI processes distributed on     1 nodes
     Waiting for input...
     Reading input from standard input
Warning: card &CELL ignored
Warning: card    PRESS_CONV_THR   = 0.5 ignored
Warning: card / ignored
Warning: card &FCP ignored
Warning: card / ignored
Warning: card &RISM ignored
Warning: card / ignored

     Current dimensions of program PWSCF are:
     Max number of different atomic species (ntypx) = 10
     Max number of k-points (npk) =  40000
     Max angular momentum in pseudopotentials (lmaxx) =  3

     IMPORTANT: XC functional enforced from input :
     Exchange-correlation= PBE
                           (   1   4   3   4   0   0   0)
     Any further DFT definition will be discarded
     Please, verify this is what you really want


     Subspace diagonalization in iterative solution of the eigenvalue problem:
     a serial algorithm will be used

     Message from routine setup:
     using ibrav=0 with symmetry is DISCOURAGED, use correct ibrav instead

     G-vector sticks info
     --------------------
     sticks:   dense  smooth     PW     G-vecs:    dense   smooth      PW
     Sum         805     409    127                15089     5329     965



     bravais-lattice index     =            0
     lattice parameter (alat)  =       5.4118  a.u.
     unit-cell volume          =     112.0732 (a.u.)^3
     number of atoms/cell      =            1
     number of atomic types    =            1
     number of electrons       =         3.00
     number of Kohn-Sham states=            6
     kinetic-energy cutoff     =      50.0000  Ry
     charge density cutoff     =     400.0000  Ry
     scf convergence threshold =      1.0E-08
     mixing beta               =       0.7000
     number of iterations used =            8  plain     mixing
     Exchange-correlation= PBE
                           (   1   4   3   4   0   0   0)

     celldm(1)=   5.411765  celldm(2)=   0.000000  celldm(3)=   0.000000
     celldm(4)=   0.000000  celldm(5)=   0.000000  celldm(6)=   0.000000

     crystal axes: (cart. coord. in units of alat)
               a(1) = (   0.000000   0.707107   0.707107 )  
               a(2) = (   0.707107   0.000000   0.707107 )  
               a(3) = (   0.707107   0.707107   0.000000 )  

     reciprocal axes: (cart. coord. in units 2 pi/alat)
               b(1) = ( -0.707107  0.707107  0.707107 )  
               b(2) = (  0.707107 -0.707107  0.707107 )  
               b(3) = (  0.707107  0.707107 -0.707107 )  


     PseudoPot. # 1 for Al read from file:
     ../../../pseudos/Al.us.pbe.z_3.ld1.psl.v1.0.0-low.upf
     MD5 check sum: ce85e4ab7f99e505e5d81ad4c7630c6b
     Pseudo is Ultrasoft + core correction, Zval =  3.0
     Generated using &quot;atomic&quot; code by A. Dal Corso  v.6.3MaX
     Using radial grid of 1135 points,  4 beta functions with: 
                l(1) =   0
                l(2) =   0
                l(3) =   1
                l(4) =   1
     Q(r) pseudized with 0 coefficients 


     atomic species   valence    mass     pseudopotential
        Al             3.00    26.98154     Al( 1.00)

     48 Sym. Ops., with inversion, found



   Cartesian axes

     site n.     atom                  positions (alat units)
         1           Al  tau(   1) = (   0.0000000   0.0000000   0.0000000  )

     number of k points=    16  Marzari-Vanderbilt smearing, width (Ry)=  0.0200
                       cart. coord. in units 2pi/alat
        k(    1) = (   0.0000000   0.0000000   0.0000000), wk =   0.0092593
        k(    2) = (   0.1178511   0.1178511  -0.1178511), wk =   0.0740741
        k(    3) = (   0.2357023   0.2357023  -0.2357023), wk =   0.0740741
        k(    4) = (  -0.3535534  -0.3535534   0.3535534), wk =   0.0370370
        k(    5) = (   0.2357023   0.0000000   0.0000000), wk =   0.0555556
        k(    6) = (   0.3535534   0.1178511  -0.1178511), wk =   0.2222222
        k(    7) = (  -0.2357023  -0.4714045   0.4714045), wk =   0.2222222
        k(    8) = (  -0.1178511  -0.3535534   0.3535534), wk =   0.2222222
        k(    9) = (   0.0000000  -0.2357023   0.2357023), wk =   0.1111111
        k(   10) = (   0.4714045   0.0000000   0.0000000), wk =   0.0555556
        k(   11) = (  -0.1178511  -0.5892557   0.5892557), wk =   0.2222222
        k(   12) = (  -0.0000000  -0.4714045   0.4714045), wk =   0.1111111
        k(   13) = (  -0.7071068   0.0000000   0.0000000), wk =   0.0277778
        k(   14) = (  -0.2357023  -0.4714045   0.7071068), wk =   0.2222222
        k(   15) = (  -0.1178511  -0.3535534   0.5892557), wk =   0.2222222
        k(   16) = (  -0.7071068   0.2357023   0.0000000), wk =   0.1111111

     Dense  grid:    15089 G-vectors     FFT dimensions: (  36,  36,  36)

     Smooth grid:     5329 G-vectors     FFT dimensions: (  25,  25,  25)

     Estimated max dynamical RAM per process >      22.50 MB

     Initial potential from superposition of free atoms

     starting charge    2.99771, renormalised to    3.00000
     Starting wfcs are    4 randomized atomic wfcs +    2 random wfcs

     total cpu time spent up to now is        0.7 secs

     Self-consistent Calculation

     iteration #  1     ecut=    50.00 Ry     beta= 0.70
     Davidson diagonalization with overlap
     ethr =  1.00E-02,  avg # of iterations =  6.6

     Threshold (ethr) on eigenvalues was too large:
     Diagonalizing with lowered threshold

     Davidson diagonalization with overlap
     ethr =  1.84E-04,  avg # of iterations =  2.7

     total cpu time spent up to now is        1.3 secs

     total energy              =      -5.04387899 Ry
     estimated scf accuracy    <       0.00537091 Ry

     iteration #  2     ecut=    50.00 Ry     beta= 0.70
     Davidson diagonalization with overlap
     ethr =  1.79E-04,  avg # of iterations =  1.0

     total cpu time spent up to now is        1.5 secs

     total energy              =      -5.04387158 Ry
     estimated scf accuracy    <       0.00036676 Ry

     iteration #  3     ecut=    50.00 Ry     beta= 0.70
     Davidson diagonalization with overlap
     ethr =  1.22E-05,  avg # of iterations =  2.3

     total cpu time spent up to now is        1.8 secs

     total energy              =      -5.04388948 Ry
     estimated scf accuracy    <       0.00000120 Ry

     iteration #  4     ecut=    50.00 Ry     beta= 0.70
     Davidson diagonalization with overlap
     ethr =  4.00E-08,  avg # of iterations =  4.1

     total cpu time spent up to now is        2.1 secs

     total energy              =      -5.04389153 Ry
     estimated scf accuracy    <       0.00000004 Ry

     iteration #  5     ecut=    50.00 Ry     beta= 0.70
     Davidson diagonalization with overlap
     ethr =  1.46E-09,  avg # of iterations =  1.4

     total cpu time spent up to now is        2.3 secs

     total energy              =      -5.04389155 Ry
     estimated scf accuracy    <       0.00000003 Ry

     iteration #  6     ecut=    50.00 Ry     beta= 0.70
     Davidson diagonalization with overlap
     ethr =  8.71E-10,  avg # of iterations =  1.4

     total cpu time spent up to now is        2.6 secs

     End of self-consistent calculation

          k = 0.0000 0.0000 0.0000 (   645 PWs)   bands (ev):

    -3.2558  20.4166  20.4166  21.8425  21.8426  21.8426

          k = 0.1179 0.1179-0.1179 (   661 PWs)   bands (ev):

    -2.5056  14.4542  19.1338  19.1338  22.3519  23.7624

          k = 0.2357 0.2357-0.2357 (   658 PWs)   bands (ev):

    -0.2778   8.3313  18.5524  18.5524  21.1336  21.1338

          k =-0.3536-0.3536 0.3536 (   652 PWs)   bands (ev):

     3.2660   3.4677  19.1644  19.1644  19.2676  19.2676

          k = 0.2357 0.0000 0.0000 (   665 PWs)   bands (ev):

    -2.2563  16.8062  16.8062  16.9862  20.0273  20.2760

          k = 0.3536 0.1179-0.1179 (   664 PWs)   bands (ev):

    -0.5239  10.8279  15.7509  16.4870  17.3952  22.2645

          k =-0.2357-0.4714 0.4714 (   672 PWs)   bands (ev):

     2.6369   5.5116  14.0292  15.9769  17.7566  23.7333

          k =-0.1179-0.3536 0.3536 (   672 PWs)   bands (ev):

     1.4313   7.1371  12.9208  17.4848  19.4101  22.6726

          k = 0.0000-0.2357 0.2357 (   662 PWs)   bands (ev):

    -1.2637  12.3105  13.7052  20.2294  22.2494  22.3547

          k = 0.4714 0.0000 0.0000 (   680 PWs)   bands (ev):

     0.6990  12.2005  14.0859  14.2509  14.2509  17.7323

          k =-0.1179-0.5893 0.5893 (   674 PWs)   bands (ev):

     3.3375   8.8714   9.3298  14.0411  15.5516  20.6943

          k =-0.0000-0.4714 0.4714 (   680 PWs)   bands (ev):

     4.5441   6.7673   8.2223  15.1180  16.8824  26.4184

          k =-0.7071 0.0000 0.0000 (   692 PWs)   bands (ev):

     4.9248   6.2413  13.0999  13.3980  13.3980  16.8396

          k =-0.2357-0.4714 0.7071 (   670 PWs)   bands (ev):

     1.6714   9.5391  10.9867  13.1829  20.6047  22.2148

          k =-0.1179-0.3536 0.5893 (   672 PWs)   bands (ev):

     5.1161   5.3725  10.8364  11.3840  21.7888  22.2810

          k =-0.7071 0.2357 0.0000 (   674 PWs)   bands (ev):

     5.8454   7.1896   8.6147  10.1658  19.7198  21.5312

     the Fermi energy is     8.1912 ev

!    total energy              =      -5.04389155 Ry
     estimated scf accuracy    <          5.5E-10 Ry
     smearing contrib. (-TS)   =      -0.00054463 Ry
     internal energy E=F+TS    =      -5.04334692 Ry

     The total energy is F=E-TS. E is the sum of the following terms:
     one-electron contribution =       2.92999414 Ry
     hartree contribution      =       0.00565954 Ry
     xc contribution           =      -2.58743499 Ry
     ewald contribution        =      -5.39156561 Ry

     convergence has been achieved in   6 iterations

     Forces acting on atoms (cartesian axes, Ry/au):

     atom    1 type  1   force =     0.00000000    0.00000000    0.00000000

     Total force =     0.000000     Total SCF correction =     0.000000


     Computing stress (Cartesian axis) and pressure

          total   stress  (Ry/bohr**3)                   (kbar)     P=       -1.91
  -0.00001299  -0.00000000  -0.00000000           -1.91       -0.00       -0.00
  -0.00000000  -0.00001299  -0.00000000           -0.00       -1.91       -0.00
  -0.00000000  -0.00000000  -0.00001299           -0.00       -0.00       -1.91


     Writing output data file qe_tmp/conv_kpoints_al_6x6x6.save/

     init_run     :      0.38s CPU      0.39s WALL (       1 calls)
     electrons    :      1.45s CPU      1.90s WALL (       1 calls)
     forces       :      0.06s CPU      0.06s WALL (       1 calls)
     stress       :      0.23s CPU      0.23s WALL (       1 calls)

     Called by init_run:
     wfcinit      :      0.05s CPU      0.05s WALL (       1 calls)
     potinit      :      0.04s CPU      0.04s WALL (       1 calls)
     hinit0       :      0.27s CPU      0.27s WALL (       1 calls)

     Called by electrons:
     c_bands      :      0.98s CPU      1.36s WALL (       7 calls)
     sum_band     :      0.22s CPU      0.22s WALL (       7 calls)
     v_of_rho     :      0.20s CPU      0.20s WALL (       7 calls)
     newd         :      0.06s CPU      0.06s WALL (       7 calls)
     mix_rho      :      0.02s CPU      0.02s WALL (       7 calls)

     Called by c_bands:
     init_us_2    :      0.05s CPU      0.05s WALL (     272 calls)
     cegterg      :      0.89s CPU      0.90s WALL (     112 calls)

     Called by *egterg:
     cdiaghg      :      0.03s CPU      0.03s WALL (     408 calls)
     h_psi        :      0.66s CPU      0.68s WALL (     440 calls)
     s_psi        :      0.03s CPU      0.03s WALL (     440 calls)
     g_psi        :      0.03s CPU      0.03s WALL (     312 calls)

     Called by h_psi:
     h_psi:calbec :      0.03s CPU      0.03s WALL (     440 calls)
     vloc_psi     :      0.60s CPU      0.61s WALL (     440 calls)
     add_vuspsi   :      0.03s CPU      0.03s WALL (     440 calls)

     General routines
     calbec       :      0.04s CPU      0.04s WALL (     632 calls)
     fft          :      0.13s CPU      0.13s WALL (     115 calls)
     ffts         :      0.00s CPU      0.00s WALL (      14 calls)
     fftw         :      0.58s CPU      0.59s WALL (    4382 calls)
     interpolate  :      0.01s CPU      0.01s WALL (       7 calls)

     Parallel routines

     PWSCF        :      2.26s CPU      3.31s WALL


   This run was terminated on:  10: 6:22  14Jul2026            

=------------------------------------------------------------------------------=
   JOB DONE.
=------------------------------------------------------------------------------=
