
     Program PWSCF v.6.7MaX starts on 14Jul2026 at 10: 6:22 

     This program is part of the open-source Quantum ESPRESSO suite
     for quantum simulation of materials; please cite
         "P. Giannozzi et al., J. Phys.:Condens. Matter 21 395502 (2009);
         "P. Giannozzi et al., J. Phys.:Condens. Matter 29 465901 (2017);
          URL http://www.quantum-espresso.org", 
     in publications or presentations arising from this work. More details at
     http://www.quantum-espresso.org/quote

     Parallel version (MPI), running on     1 processors

     MPI processes distributed on     1 nodes
     Waiting for input...
     Reading input from standard input
Warning: card &CELL ignored
Warning: card    PRESS_CONV_THR   = 0.5 ignored
Warning: card / ignored
Warning: card &FCP ignored
Warning: card / ignored
Warning: card &RISM ignored
Warning: card / ignored

     Current dimensions of program PWSCF are:
     Max number of different atomic species (ntypx) = 10
     Max number of k-points (npk) =  40000
     Max angular momentum in pseudopotentials (lmaxx) =  3

     IMPORTANT: XC functional enforced from input :
     Exchange-correlation= PBE
                           (   1   4   3   4   0   0   0)
     Any further DFT definition will be discarded
     Please, verify this is what you really want


     Subspace diagonalization in iterative solution of the eigenvalue problem:
     a serial algorithm will be used

     Message from routine setup:
     using ibrav=0 with symmetry is DISCOURAGED, use correct ibrav instead

     G-vector sticks info
     --------------------
     sticks:   dense  smooth     PW     G-vecs:    dense   smooth      PW
     Sum         805     409    127                15089     5329     965



     bravais-lattice index     =            0
     lattice parameter (alat)  =       5.4118  a.u.
     unit-cell volume          =     112.0732 (a.u.)^3
     number of atoms/cell      =            1
     number of atomic types    =            1
     number of electrons       =         3.00
     number of Kohn-Sham states=            6
     kinetic-energy cutoff     =      50.0000  Ry
     charge density cutoff     =     400.0000  Ry
     scf convergence threshold =      1.0E-08
     mixing beta               =       0.7000
     number of iterations used =            8  plain     mixing
     Exchange-correlation= PBE
                           (   1   4   3   4   0   0   0)

     celldm(1)=   5.411765  celldm(2)=   0.000000  celldm(3)=   0.000000
     celldm(4)=   0.000000  celldm(5)=   0.000000  celldm(6)=   0.000000

     crystal axes: (cart. coord. in units of alat)
               a(1) = (   0.000000   0.707107   0.707107 )  
               a(2) = (   0.707107   0.000000   0.707107 )  
               a(3) = (   0.707107   0.707107   0.000000 )  

     reciprocal axes: (cart. coord. in units 2 pi/alat)
               b(1) = ( -0.707107  0.707107  0.707107 )  
               b(2) = (  0.707107 -0.707107  0.707107 )  
               b(3) = (  0.707107  0.707107 -0.707107 )  


     PseudoPot. # 1 for Al read from file:
     ../../../pseudos/Al.us.pbe.z_3.ld1.psl.v1.0.0-low.upf
     MD5 check sum: ce85e4ab7f99e505e5d81ad4c7630c6b
     Pseudo is Ultrasoft + core correction, Zval =  3.0
     Generated using &quot;atomic&quot; code by A. Dal Corso  v.6.3MaX
     Using radial grid of 1135 points,  4 beta functions with: 
                l(1) =   0
                l(2) =   0
                l(3) =   1
                l(4) =   1
     Q(r) pseudized with 0 coefficients 


     atomic species   valence    mass     pseudopotential
        Al             3.00    26.98154     Al( 1.00)

     48 Sym. Ops., with inversion, found



   Cartesian axes

     site n.     atom                  positions (alat units)
         1           Al  tau(   1) = (   0.0000000   0.0000000   0.0000000  )

     number of k points=    29  Marzari-Vanderbilt smearing, width (Ry)=  0.0200
                       cart. coord. in units 2pi/alat
        k(    1) = (   0.0000000   0.0000000   0.0000000), wk =   0.0039062
        k(    2) = (   0.0883883   0.0883883  -0.0883883), wk =   0.0312500
        k(    3) = (   0.1767767   0.1767767  -0.1767767), wk =   0.0312500
        k(    4) = (   0.2651650   0.2651650  -0.2651650), wk =   0.0312500
        k(    5) = (  -0.3535534  -0.3535534   0.3535534), wk =   0.0156250
        k(    6) = (   0.1767767   0.0000000   0.0000000), wk =   0.0234375
        k(    7) = (   0.2651650   0.0883883  -0.0883883), wk =   0.0937500
        k(    8) = (   0.3535534   0.1767767  -0.1767767), wk =   0.0937500
        k(    9) = (  -0.2651650  -0.4419417   0.4419417), wk =   0.0937500
        k(   10) = (  -0.1767767  -0.3535534   0.3535534), wk =   0.0937500
        k(   11) = (  -0.0883883  -0.2651650   0.2651650), wk =   0.0937500
        k(   12) = (   0.0000000  -0.1767767   0.1767767), wk =   0.0468750
        k(   13) = (   0.3535534   0.0000000   0.0000000), wk =   0.0234375
        k(   14) = (   0.4419417   0.0883883  -0.0883883), wk =   0.0937500
        k(   15) = (  -0.1767767  -0.5303301   0.5303301), wk =   0.0937500
        k(   16) = (  -0.0883883  -0.4419417   0.4419417), wk =   0.0937500
        k(   17) = (   0.0000000  -0.3535534   0.3535534), wk =   0.0468750
        k(   18) = (   0.5303301   0.0000000   0.0000000), wk =   0.0234375
        k(   19) = (  -0.0883883  -0.6187184   0.6187184), wk =   0.0937500
        k(   20) = (   0.0000000  -0.5303301   0.5303301), wk =   0.0468750
        k(   21) = (  -0.7071068   0.0000000   0.0000000), wk =   0.0117188
        k(   22) = (   0.3535534   0.1767767   0.0000000), wk =   0.0937500
        k(   23) = (  -0.2651650  -0.4419417   0.6187184), wk =   0.1875000
        k(   24) = (  -0.1767767  -0.3535534   0.5303301), wk =   0.0937500
        k(   25) = (  -0.1767767  -0.5303301   0.7071068), wk =   0.0937500
        k(   26) = (  -0.0883883  -0.4419417   0.6187184), wk =   0.1875000
        k(   27) = (   0.0000000  -0.3535534   0.5303301), wk =   0.0937500
        k(   28) = (  -0.7071068   0.1767767   0.0000000), wk =   0.0468750
        k(   29) = (  -0.7071068   0.3535534   0.0000000), wk =   0.0234375

     Dense  grid:    15089 G-vectors     FFT dimensions: (  36,  36,  36)

     Smooth grid:     5329 G-vectors     FFT dimensions: (  25,  25,  25)

     Estimated max dynamical RAM per process >      23.29 MB

     Initial potential from superposition of free atoms

     starting charge    2.99771, renormalised to    3.00000
     Starting wfcs are    4 randomized atomic wfcs +    2 random wfcs

     total cpu time spent up to now is        0.7 secs

     Self-consistent Calculation

     iteration #  1     ecut=    50.00 Ry     beta= 0.70
     Davidson diagonalization with overlap
     ethr =  1.00E-02,  avg # of iterations =  5.9

     Threshold (ethr) on eigenvalues was too large:
     Diagonalizing with lowered threshold

     Davidson diagonalization with overlap
     ethr =  1.94E-04,  avg # of iterations =  3.2

     total cpu time spent up to now is        1.7 secs

     total energy              =      -5.03845741 Ry
     estimated scf accuracy    <       0.00567114 Ry

     iteration #  2     ecut=    50.00 Ry     beta= 0.70
     Davidson diagonalization with overlap
     ethr =  1.89E-04,  avg # of iterations =  1.3

     total cpu time spent up to now is        2.1 secs

     total energy              =      -5.03844643 Ry
     estimated scf accuracy    <       0.00040435 Ry

     iteration #  3     ecut=    50.00 Ry     beta= 0.70
     Davidson diagonalization with overlap
     ethr =  1.35E-05,  avg # of iterations =  2.4

     total cpu time spent up to now is        2.5 secs

     total energy              =      -5.03846489 Ry
     estimated scf accuracy    <       0.00000116 Ry

     iteration #  4     ecut=    50.00 Ry     beta= 0.70
     Davidson diagonalization with overlap
     ethr =  3.85E-08,  avg # of iterations =  3.3

     total cpu time spent up to now is        3.0 secs

     total energy              =      -5.03846663 Ry
     estimated scf accuracy    <       0.00000002 Ry

     iteration #  5     ecut=    50.00 Ry     beta= 0.70
     Davidson diagonalization with overlap
     ethr =  5.78E-10,  avg # of iterations =  2.3

     total cpu time spent up to now is        3.4 secs

     total energy              =      -5.03846664 Ry
     estimated scf accuracy    <       0.00000001 Ry

     iteration #  6     ecut=    50.00 Ry     beta= 0.70
     Davidson diagonalization with overlap
     ethr =  4.19E-10,  avg # of iterations =  1.3

     total cpu time spent up to now is        3.8 secs

     End of self-consistent calculation

          k = 0.0000 0.0000 0.0000 (   645 PWs)   bands (ev):

    -3.2535  20.4196  20.4196  21.8449  21.8449  21.8449

          k = 0.0884 0.0884-0.0884 (   661 PWs)   bands (ev):

    -2.8310  16.1236  19.4617  19.4617  22.4808  23.3909

          k = 0.1768 0.1768-0.1768 (   655 PWs)   bands (ev):

    -1.5709  11.2669  18.6943  18.6943  22.1286  22.5202

          k = 0.2652 0.2652-0.2652 (   664 PWs)   bands (ev):

     0.5055   6.9762  18.6019  18.6019  20.5429  20.5429

          k =-0.3536-0.3536 0.3536 (   652 PWs)   bands (ev):

     3.2674   3.4710  19.1678  19.1678  19.2691  19.2691

          k = 0.1768 0.0000 0.0000 (   665 PWs)   bands (ev):

    -2.6905  17.7056  17.7056  17.9736  20.6987  22.4161

          k = 0.2652 0.0884-0.0884 (   666 PWs)   bands (ev):

    -1.7104  13.1228  16.6429  18.1637  19.3883  21.9075

          k = 0.3536 0.1768-0.1768 (   656 PWs)   bands (ev):

     0.0923   8.6709  16.2952  17.0234  17.9973  23.9992

          k =-0.2652-0.4419 0.4419 (   668 PWs)   bands (ev):

     2.6850   4.8508  15.4003  16.6665  18.4348  22.4922

          k =-0.1768-0.3536 0.3536 (   667 PWs)   bands (ev):

     1.7367   6.0422  14.5211  17.7572  19.6144  21.6530

          k =-0.0884-0.2652 0.2652 (   660 PWs)   bands (ev):

    -0.5983  10.0686  14.4215  19.5469  21.4943  21.5029

          k = 0.0000-0.1768 0.1768 (   670 PWs)   bands (ev):

    -2.1296  14.2687  15.4951  21.5120  21.7931  23.1356

          k = 0.3536 0.0000 0.0000 (   649 PWs)   bands (ev):

    -1.0145  15.3123  15.3196  15.3196  16.0662  18.7741

          k = 0.4419 0.0884-0.0884 (   673 PWs)   bands (ev):

     0.5039  11.0532  13.4016  14.7226  16.1941  20.1906

          k =-0.1768-0.5303 0.5303 (   672 PWs)   bands (ev):

     2.8146   7.0876  11.4805  14.8489  16.5346  23.8513

          k =-0.0884-0.4419 0.4419 (   678 PWs)   bands (ev):

     3.7607   5.8701  10.3599  15.6986  17.5216  25.4014

          k = 0.0000-0.3536 0.3536 (   670 PWs)   bands (ev):

     1.1905   9.0794  10.5729  17.2713  19.2316  24.7492

          k = 0.5303 0.0000 0.0000 (   672 PWs)   bands (ev):

     1.7297  10.4168  13.6595  13.8798  13.8798  17.3491

          k =-0.0884-0.6187 0.6187 (   672 PWs)   bands (ev):

     3.7258   8.2114  10.0432  13.7618  15.1332  19.2557

          k = 0.0000-0.5303 0.5303 (   682 PWs)   bands (ev):

     5.9636   6.4898   7.4326  14.3672  16.0112  23.4378

          k =-0.7071 0.0000 0.0000 (   692 PWs)   bands (ev):

     4.9279   6.2424  13.1041  13.4001  13.4001  16.8408

          k = 0.3536 0.1768 0.0000 (   662 PWs)   bands (ev):

    -0.4601  11.6803  13.0687  16.5797  19.9353  21.6806

          k =-0.2652-0.4419 0.6187 (   669 PWs)   bands (ev):

     1.5991   7.9755  12.3981  14.4493  20.5520  22.6299

          k =-0.1768-0.3536 0.5303 (   676 PWs)   bands (ev):

     4.3113   4.5591  12.8000  13.2523  21.0694  21.5092

          k =-0.1768-0.5303 0.7071 (   666 PWs)   bands (ev):

     2.2733  10.1209  10.8313  11.7022  18.4473  20.4335

          k =-0.0884-0.4419 0.6187 (   673 PWs)   bands (ev):

     4.7896   6.9151   9.2905  11.4404  19.6227  23.7359

          k = 0.0000-0.3536 0.5303 (   678 PWs)   bands (ev):

     3.8910   7.5204   8.9802  12.5439  20.8317  24.0664

          k =-0.7071 0.1768 0.0000 (   674 PWs)   bands (ev):

     5.4455   6.7825   9.6005  11.0922  17.9400  19.9801

          k =-0.7071 0.3536 0.0000 (   684 PWs)   bands (ev):

     7.0012   7.0012   8.0211   8.9109  23.5949  24.1015

     the Fermi energy is     7.8015 ev

!    total energy              =      -5.03846664 Ry
     estimated scf accuracy    <          4.7E-10 Ry
     smearing contrib. (-TS)   =       0.00005946 Ry
     internal energy E=F+TS    =      -5.03852610 Ry

     The total energy is F=E-TS. E is the sum of the following terms:
     one-electron contribution =       2.93427399 Ry
     hartree contribution      =       0.00646964 Ry
     xc contribution           =      -2.58770412 Ry
     ewald contribution        =      -5.39156561 Ry

     convergence has been achieved in   6 iterations

     Forces acting on atoms (cartesian axes, Ry/au):

     atom    1 type  1   force =     0.00000000    0.00000000    0.00000000

     Total force =     0.000000     Total SCF correction =     0.000000


     Computing stress (Cartesian axis) and pressure

          total   stress  (Ry/bohr**3)                   (kbar)     P=       -4.87
  -0.00003310  -0.00000000  -0.00000000           -4.87       -0.00       -0.00
  -0.00000000  -0.00003310  -0.00000000           -0.00       -4.87       -0.00
  -0.00000000  -0.00000000  -0.00003310           -0.00       -0.00       -4.87


     Writing output data file qe_tmp/conv_kpoints_al_8x8x8.save/

     init_run     :      0.41s CPU      0.42s WALL (       1 calls)
     electrons    :      2.28s CPU      3.10s WALL (       1 calls)
     forces       :      0.07s CPU      0.07s WALL (       1 calls)
     stress       :      0.26s CPU      0.26s WALL (       1 calls)

     Called by init_run:
     wfcinit      :      0.08s CPU      0.08s WALL (       1 calls)
     potinit      :      0.04s CPU      0.05s WALL (       1 calls)
     hinit0       :      0.26s CPU      0.27s WALL (       1 calls)

     Called by electrons:
     c_bands      :      1.72s CPU      2.46s WALL (       7 calls)
     sum_band     :      0.31s CPU      0.33s WALL (       7 calls)
     v_of_rho     :      0.20s CPU      0.21s WALL (       7 calls)
     newd         :      0.06s CPU      0.06s WALL (       7 calls)
     mix_rho      :      0.02s CPU      0.02s WALL (       7 calls)

     Called by c_bands:
     init_us_2    :      0.08s CPU      0.09s WALL (     493 calls)
     cegterg      :      1.56s CPU      1.64s WALL (     203 calls)

     Called by *egterg:
     cdiaghg      :      0.05s CPU      0.05s WALL (     750 calls)
     h_psi        :      1.17s CPU      1.23s WALL (     808 calls)
     s_psi        :      0.05s CPU      0.05s WALL (     808 calls)
     g_psi        :      0.05s CPU      0.05s WALL (     576 calls)

     Called by h_psi:
     h_psi:calbec :      0.05s CPU      0.05s WALL (     808 calls)
     vloc_psi     :      1.06s CPU      1.12s WALL (     808 calls)
     add_vuspsi   :      0.05s CPU      0.05s WALL (     808 calls)

     General routines
     calbec       :      0.07s CPU      0.08s WALL (    1156 calls)
     fft          :      0.12s CPU      0.13s WALL (     115 calls)
     ffts         :      0.00s CPU      0.00s WALL (      14 calls)
     fftw         :      1.03s CPU      1.09s WALL (    7970 calls)
     interpolate  :      0.01s CPU      0.01s WALL (       7 calls)

     Parallel routines

     PWSCF        :      3.13s CPU      4.72s WALL


   This run was terminated on:  10: 6:27  14Jul2026            

=------------------------------------------------------------------------------=
   JOB DONE.
=------------------------------------------------------------------------------=
