
     Program PWSCF v.6.5 starts on 22Jul2026 at 10: 8:26 

     This program is part of the open-source Quantum ESPRESSO suite
     for quantum simulation of materials; please cite
         "P. Giannozzi et al., J. Phys.:Condens. Matter 21 395502 (2009);
         "P. Giannozzi et al., J. Phys.:Condens. Matter 29 465901 (2017);
          URL http://www.quantum-espresso.org", 
     in publications or presentations arising from this work. More details at
     http://www.quantum-espresso.org/quote

     Parallel version (MPI), running on     8 processors

     MPI processes distributed on     1 nodes
     R & G space division:  proc/nbgrp/npool/nimage =       8
     Reading input from pw.in
Warning: card &CELL ignored
Warning: card    PRESS_CONV_THR   = 0.5 ignored
Warning: card / ignored
Warning: card &FCP ignored
Warning: card / ignored
Warning: card &RISM ignored
Warning: card / ignored

     Current dimensions of program PWSCF are:
     Max number of different atomic species (ntypx) = 10
     Max number of k-points (npk) =  40000
     Max angular momentum in pseudopotentials (lmaxx) =  3

     IMPORTANT: XC functional enforced from input :
     Exchange-correlation= PBE
                           (   1   4   3   4   0   0   0)
     Any further DFT definition will be discarded
     Please, verify this is what you really want


     Subspace diagonalization in iterative solution of the eigenvalue problem:
     one sub-group per band group will be used
     scalapack distributed-memory algorithm (size of sub-group:  2*  2 procs)

     Message from routine setup:
     using ibrav=0 with symmetry is DISCOURAGED, use correct ibrav instead
 
     Parallelization info
     --------------------
     sticks:   dense  smooth     PW     G-vecs:    dense   smooth      PW
     Min         930     465    129                60552    21398    3103
     Max         931     467    130                60555    21400    3106
     Sum        7441    3729   1033               484425   171189   24837
 


     bravais-lattice index     =            0
     lattice parameter (alat)  =      15.3068  a.u.
     unit-cell volume          =    3586.3417 (a.u.)^3
     number of atoms/cell      =           32
     number of atomic types    =            3
     number of electrons       =       104.00
     number of Kohn-Sham states=           62
     kinetic-energy cutoff     =      50.0000  Ry
     charge density cutoff     =     400.0000  Ry
     convergence threshold     =      1.0E-08
     mixing beta               =       0.7000
     number of iterations used =            8  plain     mixing
     Exchange-correlation= PBE
                           (   1   4   3   4   0   0   0)
     nstep                     =           50


     celldm(1)=  15.306782  celldm(2)=   0.000000  celldm(3)=   0.000000
     celldm(4)=   0.000000  celldm(5)=   0.000000  celldm(6)=   0.000000

     crystal axes: (cart. coord. in units of alat)
               a(1) = (   1.000000   0.000000   0.000000 )  
               a(2) = (   0.000000   1.000000   0.000000 )  
               a(3) = (   0.000000   0.000000   1.000000 )  

     reciprocal axes: (cart. coord. in units 2 pi/alat)
               b(1) = (  1.000000  0.000000  0.000000 )  
               b(2) = (  0.000000  1.000000  0.000000 )  
               b(3) = (  0.000000  0.000000  1.000000 )  


     PseudoPot. # 1 for Mg read from file:
     ../../../pseudos/Mg.us.pbe.z_10.uspp.gbrv.v1.4.upf
     MD5 check sum: 6ff864fbc24a44e5dee236984f6edeb4
     Pseudo is Ultrasoft, Zval = 10.0
     
     Using radial grid of  821 points,  7 beta functions with: 
                l(1) =   0
                l(2) =   0
                l(3) =   0
                l(4) =   1
                l(5) =   1
                l(6) =   2
                l(7) =   2
     Q(r) pseudized with 0 coefficients 


     PseudoPot. # 2 for Al read from file:
     ../../../pseudos/Al.us.pbe.z_3.ld1.psl.v1.0.0-low.upf
     MD5 check sum: ce85e4ab7f99e505e5d81ad4c7630c6b
     Pseudo is Ultrasoft + core correction, Zval =  3.0
     Generated using "atomic" code by A. Dal Corso v.6.3MaX
     Using radial grid of 1135 points,  4 beta functions with: 
                l(1) =   0
                l(2) =   0
                l(3) =   1
                l(4) =   1
     Q(r) pseudized with 0 coefficients 


     PseudoPot. # 3 for Si read from file:
     ../../../pseudos/Si.us.pbe.z_4.ld1.psl.v1.0.0-high.upf
     MD5 check sum: 8e298c2a3df40404922b81d9358831a3
     Pseudo is Ultrasoft + core correction, Zval =  4.0
     Generated using "atomic" code by A. Dal Corso v.6.3MaX
     Using radial grid of 1141 points,  6 beta functions with: 
                l(1) =   0
                l(2) =   0
                l(3) =   1
                l(4) =   1
                l(5) =   2
                l(6) =   2
     Q(r) pseudized with 0 coefficients 


     atomic species   valence    mass     pseudopotential
        Mg            10.00    24.30500     Mg( 1.00)
        Al             3.00    26.98154     Al( 1.00)
        Si             4.00    28.08500     Si( 1.00)

     16 Sym. Ops., with inversion, found



   Cartesian axes

     site n.     atom                  positions (alat units)
         1           Mg  tau(   1) = (   0.0000000   0.0000000   0.0000000  )
         2           Al  tau(   2) = (   0.0000000   0.2500000   0.2500000  )
         3           Al  tau(   3) = (   0.2500000   0.0000000   0.2500000  )
         4           Al  tau(   4) = (   0.2500000   0.2500000   0.0000000  )
         5           Si  tau(   5) = (   0.0000000   0.0000000   0.5000000  )
         6           Al  tau(   6) = (   0.0000000   0.2500000   0.7500000  )
         7           Al  tau(   7) = (   0.2500000   0.0000000   0.7500000  )
         8           Al  tau(   8) = (   0.2500000   0.2500000   0.5000000  )
         9           Al  tau(   9) = (   0.0000000   0.5000000   0.0000000  )
        10           Al  tau(  10) = (   0.0000000   0.7500000   0.2500000  )
        11           Al  tau(  11) = (   0.2500000   0.5000000   0.2500000  )
        12           Al  tau(  12) = (   0.2500000   0.7500000   0.0000000  )
        13           Al  tau(  13) = (   0.0000000   0.5000000   0.5000000  )
        14           Al  tau(  14) = (   0.0000000   0.7500000   0.7500000  )
        15           Al  tau(  15) = (   0.2500000   0.5000000   0.7500000  )
        16           Al  tau(  16) = (   0.2500000   0.7500000   0.5000000  )
        17           Al  tau(  17) = (   0.5000000   0.0000000   0.0000000  )
        18           Al  tau(  18) = (   0.5000000   0.2500000   0.2500000  )
        19           Al  tau(  19) = (   0.7500000   0.0000000   0.2500000  )
        20           Al  tau(  20) = (   0.7500000   0.2500000   0.0000000  )
        21           Al  tau(  21) = (   0.5000000   0.0000000   0.5000000  )
        22           Al  tau(  22) = (   0.5000000   0.2500000   0.7500000  )
        23           Al  tau(  23) = (   0.7500000   0.0000000   0.7500000  )
        24           Al  tau(  24) = (   0.7500000   0.2500000   0.5000000  )
        25           Al  tau(  25) = (   0.5000000   0.5000000   0.0000000  )
        26           Al  tau(  26) = (   0.5000000   0.7500000   0.2500000  )
        27           Al  tau(  27) = (   0.7500000   0.5000000   0.2500000  )
        28           Al  tau(  28) = (   0.7500000   0.7500000   0.0000000  )
        29           Al  tau(  29) = (   0.5000000   0.5000000   0.5000000  )
        30           Al  tau(  30) = (   0.5000000   0.7500000   0.7500000  )
        31           Al  tau(  31) = (   0.7500000   0.5000000   0.7500000  )
        32           Al  tau(  32) = (   0.7500000   0.7500000   0.5000000  )

     number of k points=    75  Marzari-Vanderbilt smearing, width (Ry)=  0.0200
                       cart. coord. in units 2pi/alat
        k(    1) = (   0.0000000   0.0000000   0.0000000), wk =   0.0039062
        k(    2) = (   0.0000000   0.0000000   0.1250000), wk =   0.0078125
        k(    3) = (   0.0000000   0.0000000   0.2500000), wk =   0.0078125
        k(    4) = (   0.0000000   0.0000000   0.3750000), wk =   0.0078125
        k(    5) = (   0.0000000   0.0000000  -0.5000000), wk =   0.0039062
        k(    6) = (   0.0000000   0.1250000   0.1250000), wk =   0.0312500
        k(    7) = (   0.0000000   0.1250000   0.2500000), wk =   0.0312500
        k(    8) = (   0.0000000   0.1250000   0.3750000), wk =   0.0312500
        k(    9) = (   0.0000000   0.1250000  -0.5000000), wk =   0.0156250
        k(   10) = (   0.0000000   0.2500000   0.2500000), wk =   0.0312500
        k(   11) = (   0.0000000   0.2500000   0.3750000), wk =   0.0312500
        k(   12) = (   0.0000000   0.2500000  -0.5000000), wk =   0.0156250
        k(   13) = (   0.0000000   0.3750000   0.3750000), wk =   0.0312500
        k(   14) = (   0.0000000   0.3750000  -0.5000000), wk =   0.0156250
        k(   15) = (   0.0000000  -0.5000000  -0.5000000), wk =   0.0078125
        k(   16) = (   0.1250000   0.1250000   0.1250000), wk =   0.0312500
        k(   17) = (   0.1250000   0.1250000   0.2500000), wk =   0.0312500
        k(   18) = (   0.1250000   0.1250000   0.3750000), wk =   0.0312500
        k(   19) = (   0.1250000   0.1250000  -0.5000000), wk =   0.0156250
        k(   20) = (   0.1250000   0.2500000   0.2500000), wk =   0.0625000
        k(   21) = (   0.1250000   0.2500000   0.3750000), wk =   0.0625000
        k(   22) = (   0.1250000   0.2500000  -0.5000000), wk =   0.0312500
        k(   23) = (   0.1250000   0.3750000   0.3750000), wk =   0.0625000
        k(   24) = (   0.1250000   0.3750000  -0.5000000), wk =   0.0312500
        k(   25) = (   0.1250000  -0.5000000  -0.5000000), wk =   0.0156250
        k(   26) = (   0.2500000   0.2500000   0.2500000), wk =   0.0312500
        k(   27) = (   0.2500000   0.2500000   0.3750000), wk =   0.0312500
        k(   28) = (   0.2500000   0.2500000  -0.5000000), wk =   0.0156250
        k(   29) = (   0.2500000   0.3750000   0.3750000), wk =   0.0625000
        k(   30) = (   0.2500000   0.3750000  -0.5000000), wk =   0.0312500
        k(   31) = (   0.2500000  -0.5000000  -0.5000000), wk =   0.0156250
        k(   32) = (   0.3750000   0.3750000   0.3750000), wk =   0.0312500
        k(   33) = (   0.3750000   0.3750000  -0.5000000), wk =   0.0156250
        k(   34) = (   0.3750000  -0.5000000  -0.5000000), wk =   0.0156250
        k(   35) = (  -0.5000000  -0.5000000  -0.5000000), wk =   0.0039062
        k(   36) = (   0.0000000   0.1250000   0.0000000), wk =   0.0156250
        k(   37) = (   0.0000000   0.2500000   0.0000000), wk =   0.0156250
        k(   38) = (   0.0000000   0.3750000   0.0000000), wk =   0.0156250
        k(   39) = (   0.0000000  -0.5000000   0.0000000), wk =   0.0078125
        k(   40) = (   0.1250000   0.1250000   0.0000000), wk =   0.0156250
        k(   41) = (   0.1250000   0.2500000   0.0000000), wk =   0.0312500
        k(   42) = (   0.2500000   0.0000000   0.1250000), wk =   0.0312500
        k(   43) = (   0.1250000   0.3750000   0.0000000), wk =   0.0312500
        k(   44) = (   0.3750000   0.0000000   0.1250000), wk =   0.0312500
        k(   45) = (   0.1250000  -0.5000000   0.0000000), wk =   0.0156250
        k(   46) = (  -0.5000000   0.0000000   0.1250000), wk =   0.0156250
        k(   47) = (   0.2500000   0.2500000   0.0000000), wk =   0.0156250
        k(   48) = (   0.2500000   0.3750000   0.0000000), wk =   0.0312500
        k(   49) = (   0.3750000   0.0000000   0.2500000), wk =   0.0312500
        k(   50) = (   0.2500000  -0.5000000   0.0000000), wk =   0.0156250
        k(   51) = (  -0.5000000   0.0000000   0.2500000), wk =   0.0156250
        k(   52) = (   0.3750000   0.3750000   0.0000000), wk =   0.0156250
        k(   53) = (   0.3750000  -0.5000000   0.0000000), wk =   0.0156250
        k(   54) = (  -0.5000000   0.0000000   0.3750000), wk =   0.0156250
        k(   55) = (  -0.5000000  -0.5000000   0.0000000), wk =   0.0039062
        k(   56) = (   0.1250000   0.2500000   0.1250000), wk =   0.0625000
        k(   57) = (   0.1250000   0.3750000   0.1250000), wk =   0.0625000
        k(   58) = (   0.1250000  -0.5000000   0.1250000), wk =   0.0312500
        k(   59) = (   0.2500000   0.2500000   0.1250000), wk =   0.0312500
        k(   60) = (   0.2500000   0.3750000   0.1250000), wk =   0.0625000
        k(   61) = (   0.3750000   0.1250000   0.2500000), wk =   0.0625000
        k(   62) = (   0.2500000  -0.5000000   0.1250000), wk =   0.0312500
        k(   63) = (  -0.5000000   0.1250000   0.2500000), wk =   0.0312500
        k(   64) = (   0.3750000   0.3750000   0.1250000), wk =   0.0312500
        k(   65) = (   0.3750000  -0.5000000   0.1250000), wk =   0.0312500
        k(   66) = (  -0.5000000   0.1250000   0.3750000), wk =   0.0312500
        k(   67) = (  -0.5000000  -0.5000000   0.1250000), wk =   0.0078125
        k(   68) = (   0.2500000   0.3750000   0.2500000), wk =   0.0625000
        k(   69) = (   0.2500000  -0.5000000   0.2500000), wk =   0.0312500
        k(   70) = (   0.3750000   0.3750000   0.2500000), wk =   0.0312500
        k(   71) = (   0.3750000  -0.5000000   0.2500000), wk =   0.0312500
        k(   72) = (  -0.5000000   0.2500000   0.3750000), wk =   0.0312500
        k(   73) = (  -0.5000000  -0.5000000   0.2500000), wk =   0.0078125
        k(   74) = (   0.3750000  -0.5000000   0.3750000), wk =   0.0312500
        k(   75) = (  -0.5000000  -0.5000000   0.3750000), wk =   0.0078125

     Dense  grid:   484425 G-vectors     FFT dimensions: ( 100, 100, 100)

     Smooth grid:   171189 G-vectors     FFT dimensions: (  72,  72,  72)

     Estimated max dynamical RAM per process >     533.71 MB

     Estimated total dynamical RAM >       4.17 GB

     Initial potential from superposition of free atoms

     starting charge  103.63050, renormalised to  104.00000
     Starting wfcs are  129 randomized atomic wfcs

     total cpu time spent up to now is       15.2 secs

     Self-consistent Calculation

     iteration #  1     ecut=    50.00 Ry     beta= 0.70
     Davidson diagonalization with overlap
     ethr =  1.00E-02,  avg # of iterations =  3.0

     Threshold (ethr) on eigenvalues was too large:
     Diagonalizing with lowered threshold

     Davidson diagonalization with overlap
     ethr =  2.68E-04,  avg # of iterations =  4.3

     total cpu time spent up to now is       60.1 secs

     total energy              =    -287.78911164 Ry
     Harris-Foulkes estimate   =    -287.92832055 Ry
     estimated scf accuracy    <       0.29156012 Ry

     iteration #  2     ecut=    50.00 Ry     beta= 0.70
     Davidson diagonalization with overlap
     ethr =  2.80E-04,  avg # of iterations =  5.1

     total cpu time spent up to now is       86.4 secs

     total energy              =    -287.58263546 Ry
     Harris-Foulkes estimate   =    -288.09736383 Ry
     estimated scf accuracy    <       1.79891300 Ry

     iteration #  3     ecut=    50.00 Ry     beta= 0.70
     Davidson diagonalization with overlap
     ethr =  2.80E-04,  avg # of iterations =  4.3

     total cpu time spent up to now is      110.5 secs

     total energy              =    -287.85193595 Ry
     Harris-Foulkes estimate   =    -287.88206763 Ry
     estimated scf accuracy    <       0.11259511 Ry

     iteration #  4     ecut=    50.00 Ry     beta= 0.70
     Davidson diagonalization with overlap
     ethr =  1.08E-04,  avg # of iterations =  2.5

     total cpu time spent up to now is      129.3 secs

     total energy              =    -287.86230046 Ry
     Harris-Foulkes estimate   =    -287.87349093 Ry
     estimated scf accuracy    <       0.02763503 Ry

     iteration #  5     ecut=    50.00 Ry     beta= 0.70
     Davidson diagonalization with overlap
     ethr =  2.66E-05,  avg # of iterations =  2.9

     total cpu time spent up to now is      148.7 secs

     total energy              =    -287.86707068 Ry
     Harris-Foulkes estimate   =    -287.86789121 Ry
     estimated scf accuracy    <       0.00202634 Ry

     iteration #  6     ecut=    50.00 Ry     beta= 0.70
     Davidson diagonalization with overlap
     ethr =  1.95E-06,  avg # of iterations =  6.0

     total cpu time spent up to now is      175.6 secs

     total energy              =    -287.86766696 Ry
     Harris-Foulkes estimate   =    -287.86800559 Ry
     estimated scf accuracy    <       0.00133752 Ry

     iteration #  7     ecut=    50.00 Ry     beta= 0.70
     Davidson diagonalization with overlap
     ethr =  1.29E-06,  avg # of iterations =  2.4

     total cpu time spent up to now is      193.0 secs

     total energy              =    -287.86782332 Ry
     Harris-Foulkes estimate   =    -287.86783254 Ry
     estimated scf accuracy    <       0.00002363 Ry

     iteration #  8     ecut=    50.00 Ry     beta= 0.70
     Davidson diagonalization with overlap
     ethr =  2.27E-08,  avg # of iterations =  4.6

     total cpu time spent up to now is      220.1 secs

     total energy              =    -287.86783583 Ry
     Harris-Foulkes estimate   =    -287.86784179 Ry
     estimated scf accuracy    <       0.00002015 Ry

     iteration #  9     ecut=    50.00 Ry     beta= 0.70
     Davidson diagonalization with overlap
     ethr =  1.94E-08,  avg # of iterations =  2.1

     total cpu time spent up to now is      237.7 secs

     total energy              =    -287.86783821 Ry
     Harris-Foulkes estimate   =    -287.86783858 Ry
     estimated scf accuracy    <       0.00000165 Ry

     iteration # 10     ecut=    50.00 Ry     beta= 0.70
     Davidson diagonalization with overlap
     ethr =  1.58E-09,  avg # of iterations =  3.8

     total cpu time spent up to now is      258.9 secs

     total energy              =    -287.86783851 Ry
     Harris-Foulkes estimate   =    -287.86783855 Ry
     estimated scf accuracy    <       0.00000012 Ry

     iteration # 11     ecut=    50.00 Ry     beta= 0.70
     Davidson diagonalization with overlap
     ethr =  1.15E-10,  avg # of iterations =  3.6

     total cpu time spent up to now is      281.1 secs

     total energy              =    -287.86783854 Ry
     Harris-Foulkes estimate   =    -287.86783854 Ry
     estimated scf accuracy    <       0.00000002 Ry

     iteration # 12     ecut=    50.00 Ry     beta= 0.70
     Davidson diagonalization with overlap
     ethr =  2.27E-11,  avg # of iterations =  2.8

     total cpu time spent up to now is      299.8 secs

     End of self-consistent calculation

          k = 0.0000 0.0000 0.0000 ( 21367 PWs)   bands (ev):

   -67.7693 -34.5514 -34.5514 -34.5491  -3.2805  -1.5661  -0.9683  -0.9626
    -0.9626  -0.9604  -0.7380   0.6415   1.1458   1.1458   1.2366   1.2369
     1.2380   1.2446   1.2451   1.2451   1.3341   1.3341   1.7480   3.2851
     3.3059   3.3059   3.3201   3.4367   3.5265   3.5274   3.5274   4.9657
     4.9657   4.9905   6.2891   6.3042   6.3059   6.7532   6.7532   6.9698
     7.0404   7.0404   7.0466   7.0481   7.0686   7.0774   7.0774   7.2609
     7.2609   8.0421   8.0421   8.0576   8.0779   8.0785   8.1106   8.1307
     8.9600   8.9633   8.9633   8.9639   9.0914   9.1080

          k = 0.0000 0.0000 0.1250 ( 21419 PWs)   bands (ev):

   -67.7693 -34.5514 -34.5514 -34.5491  -3.2479  -1.7075  -1.1448  -0.9336
    -0.9282  -0.9282  -0.3248   0.5041   0.7230   0.7236   0.7236   1.2099
     1.2702   1.2702   1.2788   1.8164   1.8308   1.8308   2.0170   2.8713
     2.9023   2.9023   2.9061   3.9155   3.9946   3.9946   4.0059   4.4325
     4.9984   4.9984   6.3115   6.3382   6.4294   6.4294   6.4512   6.4974
     6.5718   6.5718   6.9246   7.0392   7.0392   7.0806   7.1009   7.6368
     7.6368   7.7276   7.8646   8.2898   8.2898   8.2986   8.3704   8.5787
     8.5787   8.5902   8.6159   8.6390   8.6638   8.6947

          k = 0.0000 0.0000 0.2500 ( 21418 PWs)   bands (ev):

   -67.7693 -34.5514 -34.5514 -34.5491  -3.1519  -2.0384  -1.1650  -0.8295
    -0.8250  -0.8250   0.2297   0.2763   0.2823   0.2823   0.2833   1.2598
     1.3700   1.3700   1.3813   2.4223   2.4610   2.4693   2.4693   2.4698
     2.4721   2.4721   2.5940   3.5536   4.5264   4.6106   4.6106   4.6383
     5.1000   5.1000   5.6003   5.6243   5.6243   5.6291   6.1310   6.1310
     6.4213   6.4402   7.1128   7.1128   7.1779   7.1978   7.2665   7.4928
     7.7424   7.7424   7.7681   7.8966   7.9943   8.2167   8.2202   8.2202
     8.2360   8.2360   8.2395   8.4440   8.5938   8.6527

          k = 0.0000 0.0000 0.3750 ( 21446 PWs)   bands (ev):

   -67.7693 -34.5514 -34.5514 -34.5491  -3.0035  -2.3629  -1.1124  -0.6562
    -0.6545  -0.6545  -0.1029  -0.0925  -0.0925   0.0030   0.9280   1.3937
     1.5326   1.5326   1.5519   2.0972   2.1082   2.1082   2.1249   2.6968
     3.1688   3.1744   3.1744   3.2303   4.7410   4.7576   4.7576   4.7612
     5.1652   5.1652   5.2120   5.3366   5.3897   5.3897   5.7961   5.7961
     6.4964   6.6089   6.7517   6.8990   6.8990   6.9107   7.1433   7.2406
     7.2406   7.3401   7.3587   7.3614   7.8596   7.8837   7.9413   7.9413
     8.5328   8.7302   8.7302   8.7929   8.9714   8.9714

          k = 0.0000 0.0000-0.5000 ( 21426 PWs)   bands (ev):

   -67.7693 -34.5514 -34.5514 -34.5491  -2.8884  -2.5397  -1.0808  -0.4611
    -0.4611  -0.4196  -0.4082  -0.3542  -0.3542  -0.0884   1.2801   1.6916
     1.6916   1.7045   1.7793   1.8024   1.8508   1.8822   1.8822   2.1849
     3.8656   3.9065   3.9065   3.9369   3.9375   3.9741   3.9741   4.0496
     5.3258   5.3258   5.6069   5.6069   5.7820   6.0427   6.0541   6.0541
     6.0930   6.0988   6.1473   6.1473   6.7451   6.8179   6.8723   7.1284
     7.3169   7.3169   7.5495   7.5618   7.5729   7.6279   7.7998   7.7998
     8.5874   8.9406   8.9406   9.0109   9.1052   9.1052

          k = 0.0000 0.1250 0.1250 ( 21407 PWs)   bands (ev):

   -67.7693 -34.5514 -34.5514 -34.5491  -3.2138  -1.7592  -1.3784  -1.0353
    -0.8935  -0.4729  -0.2480   0.1732   0.5253   0.7145   0.8094   0.8948
     1.2775   1.3400   1.6767   1.8091   1.9024   2.0231   2.3834   2.4039
     2.4810   3.3558   3.3782   3.5365   3.5958   4.4431   4.4638   4.5232
     4.5586   5.0345   5.8713   6.0763   6.3732   6.3737   6.4170   6.5069
     6.5978   6.6356   6.7143   6.9364   6.9406   7.0026   7.1203   7.5024
     7.7359   7.7443   8.0263   8.0700   8.0897   8.1316   8.2142   8.2605
     8.4330   8.4500   8.7645   8.7723   8.8061   9.1240

          k = 0.0000 0.1250 0.2500 ( 21406 PWs)   bands (ev):

   -67.7693 -34.5514 -34.5514 -34.5491  -3.1181  -2.0183  -1.4231  -0.9817
    -0.7904  -0.3640  -0.1923   0.2755   0.3153   0.3163   0.7583   0.8666
     0.9553   1.7618   1.9152   1.9494   1.9992   2.0748   2.5052   2.5643
     2.9993   3.0385   3.0654   3.5962   4.0554   4.1336   4.5622   5.0737
     5.1140   5.1354   5.2408   5.5448   5.6521   5.6887   6.1516   6.1712
     6.4708   6.5906   6.6595   6.6910   7.0207   7.1598   7.2641   7.4571
     7.6149   7.7061   7.7416   7.7744   7.8359   7.9973   8.0551   8.2241
     8.2559   8.3462   8.3878   8.7716   8.9565   9.0826

          k = 0.0000 0.1250 0.3750 ( 21434 PWs)   bands (ev):

   -67.7693 -34.5514 -34.5514 -34.5491  -2.9705  -2.3314  -1.3294  -0.8855
    -0.6200  -0.5339  -0.2211  -0.0584   0.0529   0.4807   0.8453   1.0333
     1.1385   1.5872   1.5902   2.0354   2.1249   2.5524   2.6746   2.6780
     2.8401   3.2083   3.2388   3.7523   4.2541   4.5676   4.7717   4.7860
     4.8435   4.8873   5.2461   5.2577   5.3162   5.8128   5.8230   5.9032
     6.3294   6.4162   6.6448   6.7254   6.8095   6.8279   7.0686   7.2730
     7.3457   7.3692   7.4209   7.4535   7.5010   7.8428   7.8773   8.2061
     8.4444   8.4938   8.8711   8.9297   9.1435   9.2517

          k = 0.0000 0.1250-0.5000 ( 21398 PWs)   bands (ev):

   -67.7693 -34.5514 -34.5514 -34.5491  -2.8567  -2.5052  -1.2601  -0.8393
    -0.6548  -0.4267  -0.3198  -0.2216   0.0446   0.3075   0.9873   1.2232
     1.3305   1.4205   1.7804   1.8723   2.1604   2.3126   2.4197   2.5721
     3.4031   3.4849   3.9320   3.9393   4.0074   4.0261   4.4699   4.5482
     4.7609   5.0412   5.3403   5.4844   5.5750   5.5971   5.6381   5.6911
     6.4082   6.6198   6.6204   6.6794   6.7801   6.8806   6.9335   7.0154
     7.0414   7.0627   7.2391   7.3018   7.3730   7.6201   7.9954   8.2565
     8.3681   8.6976   9.0902   9.2226   9.2568   9.4753

          k = 0.0000 0.2500 0.2500 ( 21408 PWs)   bands (ev):

   -67.7693 -34.5514 -34.5514 -34.5491  -3.0177  -2.0374  -1.7172  -0.9774
    -0.6867  -0.5926   0.0434   0.3726   0.4130   0.4175   0.4675   0.6528
     1.4888   1.5138   1.5182   1.5340   2.3872   2.5543   2.6477   2.7739
     3.4742   3.5135   3.5738   3.6937   3.7322   3.8019   3.9068   4.5890
     4.8117   5.1987   5.6278   5.6389   5.7216   5.8410   5.8684   5.9055
     6.1442   6.3899   6.5503   6.6806   6.7223   6.8174   6.8489   6.8812
     7.0262   7.3274   7.5656   7.9035   8.1332   8.1409   8.2205   8.4642
     8.7131   8.8045   8.9349   8.9404   8.9577   9.1330

          k = 0.0000 0.2500 0.3750 ( 21434 PWs)   bands (ev):

   -67.7693 -34.5514 -34.5514 -34.5491  -2.8730  -2.2438  -1.7044  -1.1329
    -0.6648  -0.5165  -0.0262   0.0430   0.4549   0.5816   0.5907   1.1263
     1.1442   1.1462   1.2457   2.2078   2.6392   2.7567   2.7615   3.2918
     3.3077   3.3104   3.3895   3.7435   3.8439   4.3546   4.3825   4.3985
     4.4067   4.8867   4.9110   5.3472   5.8044   5.8588   5.9287   5.9704
     5.9728   6.0236   6.3737   6.3930   6.5075   6.5671   6.5970   6.8149
     6.9915   7.1593   7.5830   7.9573   8.0203   8.0941   8.2807   8.4587
     8.4870   8.8417   9.0410   9.0639   9.1331   9.2863

          k = 0.0000 0.2500-0.5000 ( 21376 PWs)   bands (ev):

   -67.7693 -34.5514 -34.5514 -34.5491  -2.7640  -2.4023  -1.6141  -1.2777
    -0.6240  -0.3235  -0.2170  -0.1181   0.4906   0.7623   0.7801   0.8877
     0.8958   1.0532   1.8913   1.9708   2.7103   2.9491   2.9809   3.0019
     3.0585   3.2344   3.8338   4.0370   4.0669   4.1031   4.1071   4.2308
     5.0345   5.1088   5.1192   5.1699   5.1819   5.2084   5.4798   5.7436
     5.9583   6.1480   6.2238   6.4422   6.5362   6.7625   6.8065   7.0061
     7.2288   7.2679   7.3158   7.3609   7.9158   8.2070   8.2999   8.4143
     8.5010   8.5948   8.6765   8.8611   9.6895   9.9264

          k = 0.0000 0.3750 0.3750 ( 21364 PWs)   bands (ev):

   -67.7693 -34.5514 -34.5514 -34.5491  -2.7196  -2.1989  -1.9268  -1.4754
    -0.5668  -0.3444  -0.0071   0.1669   0.2611   0.3341   0.7710   0.7922
     1.1793   1.4115   1.8436   1.8632   2.8420   2.9238   3.2411   3.3552
     3.4201   3.5167   3.5751   3.6197   3.8976   3.9013   4.1431   4.1759
     4.9331   4.9482   5.0504   5.1281   5.2092   5.4710   5.4993   5.6075
     5.6553   5.8732   5.9670   6.1967   6.5255   6.6469   6.6514   6.8019
     7.2113   7.2274   7.3870   7.7115   8.0304   8.3616   8.7092   8.7574
     8.7910   8.7971   9.0480   9.2919   9.4458   9.4968

          k = 0.0000 0.3750-0.5000 ( 21380 PWs)   bands (ev):

   -67.7693 -34.5514 -34.5514 -34.5491  -2.6248  -2.2344  -1.9360  -1.6498
    -0.5160  -0.1525  -0.0471   0.0362   0.2490   0.4046   0.5133   0.6540
     1.3711   1.6394   2.0683   2.1466   2.5544   2.6513   3.0252   3.2924
     3.4413   3.6380   3.7564   3.8138   4.1951   4.2493   4.2719   4.3196
     4.6317   4.7746   4.8214   4.8527   5.1535   5.2815   5.3607   5.6346
     5.6372   5.7850   5.8457   5.8956   6.1963   6.4701   6.9378   7.0520
     7.3214   7.6253   7.6860   7.9055   7.9094   7.9519   7.9991   8.1708
     9.2322   9.4020   9.5110   9.5182   9.5590   9.5594

          k = 0.0000-0.5000-0.5000 ( 21392 PWs)   bands (ev):

   -67.7693 -34.5514 -34.5514 -34.5491  -2.5256  -2.0982  -2.0663  -1.8862
    -0.4431   0.0499   0.1126   0.1339   0.1457   0.1636   0.2523   0.4630
     1.9588   2.1935   2.2334   2.3171   2.3256   2.4208   2.4390   2.6190
     4.0494   4.1727   4.1909   4.2008   4.3595   4.3648   4.4722   4.4901
     4.5354   4.5847   4.5978   4.6067   4.6275   4.6297   4.7000   5.1249
     5.7546   6.0036   6.0191   6.2803   6.4602   6.4687   6.5735   6.6307
     7.1221   7.4794   7.4830   7.8475   8.5835   8.6537   8.6760   8.7183
     8.7274   8.7376   8.7524   8.8349   9.7373  10.1380

          k = 0.1250 0.1250 0.1250 ( 21410 PWs)   bands (ev):

   -67.7693 -34.5514 -34.5514 -34.5491  -3.1798  -1.7825  -1.4170  -1.3093
    -0.5970  -0.3091  -0.2042   0.0819   0.2453   0.3976   1.0462   1.2735
     1.3421   1.3431   1.4065   1.5788   1.9062   2.2684   2.4321   2.6048
     2.9572   2.9676   2.9682   3.9918   4.0480   4.0528   4.4803   4.4888
     4.5166   5.1025   5.7874   5.9377   6.0317   6.0447   6.1190   6.2195
     6.9074   6.9393   6.9783   7.0178   7.0511   7.0658   7.0997   7.2000
     7.2175   7.5270   7.6451   7.7637   8.2995   8.3851   8.4150   8.5538
     8.6001   8.6004   8.6591   8.6657   8.6929   8.8117

          k = 0.1250 0.1250 0.2500 ( 21399 PWs)   bands (ev):

   -67.7693 -34.5514 -34.5514 -34.5491  -3.0844  -1.9986  -1.4333  -1.3129
    -0.5312  -0.2277  -0.1799  -0.0949   0.2563   0.4476   0.8576   0.8944
     1.3172   1.4378   1.5328   1.9927   2.0425   2.3894   2.5379   2.6122
     3.0720   3.1302   3.4690   3.5772   3.7623   4.4894   4.5140   4.7349
     4.7389   5.1280   5.1661   5.6068   5.6110   5.7222   6.0658   6.0815
     6.2935   6.2990   6.7341   7.0503   7.0668   7.1245   7.1255   7.2727
     7.3476   7.6402   7.6924   7.7552   7.8177   8.0550   8.2146   8.2374
     8.2630   8.2964   8.7420   8.7451   8.8761   9.1940

          k = 0.1250 0.1250 0.3750 ( 21424 PWs)   bands (ev):

   -67.7693 -34.5514 -34.5514 -34.5491  -2.9376  -2.2999  -1.3713  -1.1399
    -0.6275  -0.5830  -0.1520  -0.0321   0.4112   0.5200   0.6053   1.0625
     1.0680   1.5840   1.6001   2.1288   2.1753   2.5946   2.7002   2.7111
     2.8122   3.2652   3.7737   3.7963   4.2121   4.2956   4.3515   4.6972
     4.7186   5.2351   5.2527   5.3356   5.3602   5.4004   5.4145   5.9120
     6.2709   6.3210   6.4024   6.8099   6.8392   6.9897   6.9898   7.2370
     7.2523   7.3266   7.3714   7.7454   7.7678   7.9335   7.9361   8.1015
     8.4191   8.4539   8.8778   8.9024   9.2395   9.4630

          k = 0.1250 0.1250-0.5000 ( 21386 PWs)   bands (ev):

   -67.7693 -34.5514 -34.5514 -34.5491  -2.8251  -2.4707  -1.3184  -0.9251
    -0.8663  -0.7168  -0.1135   0.1800   0.2396   0.3986   0.6138   0.8825
     1.5653   1.7588   1.7903   1.9091   1.9497   2.1031   2.7892   3.0428
     3.4251   3.4530   3.4864   3.5641   4.4676   4.5152   4.5516   4.5993
     4.7246   4.8455   5.0026   5.0709   5.1058   5.2374   6.0308   6.0986
     6.1564   6.1999   6.3654   6.4968   6.6114   6.7979   7.0228   7.1960
     7.3797   7.4243   7.4975   7.5104   7.5279   7.6755   7.7657   7.7928
     8.8705   8.9489   9.1526   9.1634   9.1638   9.1851

          k = 0.1250 0.2500 0.2500 ( 21396 PWs)   bands (ev):

   -67.7693 -34.5514 -34.5514 -34.5491  -2.9842  -2.0142  -1.6852  -1.2825
    -0.7105  -0.3259  -0.1067  -0.0016   0.3226   0.5461   0.8479   1.0056
     1.1232   1.5272   1.5681   1.9677   2.0836   2.2225   3.0011   3.1435
     3.1537   3.2906   3.6549   3.6887   3.7517   4.2651   4.2729   4.6036
     4.6579   4.8404   5.2229   5.2674   5.3367   5.6092   5.8202   6.1674
     6.3184   6.3446   6.3779   6.4961   6.7685   6.8686   6.9031   7.1711
     7.3159   7.5112   7.6896   7.9098   8.0708   8.1633   8.2239   8.3615
     8.4576   8.5158   8.8386   8.8985   9.1676   9.2042

          k = 0.1250 0.2500 0.3750 ( 21425 PWs)   bands (ev):

   -67.7693 -34.5514 -34.5514 -34.5491  -2.8405  -2.2129  -1.6757  -1.2032
    -0.9593  -0.5214  -0.0598   0.0702   0.4708   0.6345   0.7092   1.0579
     1.1667   1.2971   1.7252   2.1555   2.3163   2.6977   2.8067   2.9087
     3.2993   3.6827   3.7667   3.8785   3.9183   4.0591   4.3331   4.4121
     4.4685   4.8001   4.9466   5.2772   5.3528   5.5122   5.5692   5.7921
     5.9643   6.0145   6.1231   6.4585   6.5099   6.5304   7.0037   7.0904
     7.3863   7.4512   7.5855   7.9348   7.9746   8.3099   8.4385   8.4839
     8.5536   8.6270   8.9473   8.9887   9.1074   9.2381

          k = 0.1250 0.2500-0.5000 ( 21404 PWs)   bands (ev):

   -67.7693 -34.5514 -34.5514 -34.5491  -2.7330  -2.3678  -1.5944  -1.2474
    -0.9656  -0.6778  -0.0093   0.2526   0.3782   0.4643   0.7182   0.9790
     1.2618   1.5171   1.9225   2.0072   2.3501   2.6168   2.9861   3.0712
     3.4047   3.5568   3.5601   3.7400   3.9172   4.1882   4.5760   4.6150
     4.6733   4.7157   4.9329   5.1461   5.1544   5.2364   5.4983   5.7086
     5.7156   5.8719   6.0077   6.3100   6.6083   6.7132   6.8200   6.9003
     7.4043   7.6103   7.7991   7.8937   8.0691   8.2332   8.3463   8.4362
     8.4531   8.6154   8.6473   8.9411   9.1967   9.3851

          k = 0.1250 0.3750 0.3750 ( 21399 PWs)   bands (ev):

   -67.7693 -34.5514 -34.5514 -34.5491  -2.6880  -2.1679  -1.8929  -1.4516
    -0.9316  -0.4742  -0.2138   0.1173   0.3011   0.6437   0.8782   1.2054
     1.3400   1.4697   1.8767   1.8982   2.7740   2.9275   2.9538   3.0757
     3.3673   3.5066   3.5167   3.6333   3.8998   4.1366   4.4660   4.5123
     4.6549   4.6627   4.9121   5.0413   5.1198   5.2181   5.4282   5.6233
     5.6474   5.6748   6.0877   6.1237   6.3280   6.6406   6.6811   6.7515
     7.4212   7.7740   7.9353   8.1809   8.2579   8.2994   8.3627   8.5273
     8.7395   8.7490   9.1564   9.2074   9.3060   9.3322

          k = 0.1250 0.3750-0.5000 ( 21438 PWs)   bands (ev):

   -67.7693 -34.5514 -34.5514 -34.5491  -2.5949  -2.1999  -1.9045  -1.6168
    -0.8452  -0.5183  -0.2271   0.0639   0.2921   0.5832   0.8879   1.1561
     1.4142   1.6739   2.1020   2.1810   2.5828   2.6829   3.0289   3.0739
     3.3105   3.3202   3.7151   3.7890   4.0797   4.1715   4.2451   4.5378
     4.6500   4.7423   4.8196   5.0655   5.0867   5.3051   5.3374   5.4175
     5.6207   5.7632   5.7701   5.8658   6.0335   6.1146   7.3126   7.3472
     7.4005   7.5257   7.6747   8.0223   8.2208   8.4547   8.4854   8.6692
     8.7213   8.9746   9.0109   9.0823   9.3282   9.4114

          k = 0.1250-0.5000-0.5000 ( 21408 PWs)   bands (ev):

   -67.7693 -34.5514 -34.5514 -34.5491  -2.4976  -2.0632  -2.0313  -1.8534
    -0.7386  -0.3942  -0.3627  -0.1585   0.4070   0.7072   0.7384   0.9374
     1.9948   2.2266   2.2671   2.3510   2.3595   2.4542   2.4719   2.6504
     3.6261   3.8344   3.8640   3.9621   3.9696   4.0739   4.0945   4.2213
     4.6878   4.9696   5.0054   5.0615   5.0694   5.1427   5.1770   5.2259
     5.4366   5.4473   5.4671   5.7188   6.5559   6.6084   6.6269   6.6999
     7.6932   8.0388   8.0596   8.1555   8.1639   8.1956   8.2946   8.4581
     9.1977   9.2061   9.2659   9.2716   9.3394   9.5780

          k = 0.2500 0.2500 0.2500 ( 21428 PWs)   bands (ev):

   -67.7693 -34.5514 -34.5514 -34.5491  -2.8849  -1.9873  -1.6609  -1.5517
    -0.7835  -0.5486  -0.4104   0.2753   0.5516   0.5544   0.7023   1.3700
     1.5773   1.6446   1.6495   1.7108   1.9096   2.6796   2.7212   2.7353
     3.6075   3.7392   3.7612   3.7876   3.8373   3.9972   4.5398   4.7521
     4.7766   4.8391   4.8838   4.8871   4.9480   4.9682   5.0862   5.7955
     5.9134   6.1106   6.8153   6.8333   6.9265   6.9664   7.0240   7.0658
     7.0801   7.8785   7.9179   7.9550   8.0269   8.1181   8.1332   8.2542
     8.2849   8.3089   9.1637   9.2246   9.3413   9.3669

          k = 0.2500 0.2500 0.3750 ( 21397 PWs)   bands (ev):

   -67.7693 -34.5514 -34.5514 -34.5491  -2.7446  -2.1280  -1.6375  -1.4875
    -0.9456  -0.9286  -0.4016   0.1621   0.5437   0.7221   1.2602   1.2702
     1.2789   1.7751   1.8024   2.3262   2.3623   2.3769   2.4142   2.9359
     3.3756   3.8466   3.9081   3.9162   3.9629   3.9665   4.4741   4.4890
     4.5067   4.5268   4.5904   4.9580   4.9979   5.0648   5.5571   5.5810
     5.5979   5.6845   6.1152   6.1502   7.0470   7.0861   7.1311   7.1709
     7.6196   7.6543   7.6669   7.7125   7.7142   8.3757   8.4058   8.6454
     8.7050   8.8897   8.9769   9.2788   9.2849   9.3156

          k = 0.2500 0.2500-0.5000 ( 21422 PWs)   bands (ev):

   -67.7693 -34.5514 -34.5514 -34.5491  -2.6427  -2.2649  -1.6021  -1.2719
    -1.2130  -1.0560  -0.3055  -0.0068   0.6161   0.9329   0.9929   1.1400
     1.7729   1.9600   1.9926   2.1109   2.1515   2.3016   3.0587   3.1170
     3.1503   3.1958   3.8894   4.0411   4.0690   4.0792   4.2756   4.2894
     4.3108   4.5262   5.0264   5.1330   5.1414   5.2234   5.2550   5.3325
     5.4433   5.6594   6.2843   6.3023   6.3906   6.4012   7.1906   7.2519
     7.4984   7.5193   8.1811   8.2726   8.3072   8.3395   8.3473   8.5251
     8.6406   8.6718   8.8844   9.0074   9.3220   9.4144

          k = 0.2500 0.3750 0.3750 ( 21425 PWs)   bands (ev):

   -67.7693 -34.5514 -34.5514 -34.5491  -2.5958  -2.0799  -1.7924  -1.4619
    -1.2350  -0.8885  -0.6521  -0.1894   0.7464   1.1814   1.4230   1.4514
     1.5916   1.9701   1.9873   2.0140   2.4020   2.6372   2.9184   2.9781
     3.1474   3.1784   3.4829   3.7055   4.0465   4.1237   4.1338   4.4219
     4.5353   4.6323   4.7055   4.7441   4.9328   5.1185   5.2322   5.2587
     5.4063   6.2286   6.2740   6.2871   6.7063   6.7777   6.8278   6.9488
     7.6550   7.8131   7.8544   7.9027   8.2058   8.3261   8.3764   8.3854
     8.6849   9.0359   9.2479   9.2914   9.2983   9.3843

          k = 0.2500 0.3750-0.5000 ( 21448 PWs)   bands (ev):

   -67.7693 -34.5514 -34.5514 -34.5491  -2.5093  -2.0970  -1.8154  -1.5208
    -1.2369  -0.9599  -0.6505  -0.3714   0.8512   1.2208   1.4409   1.6144
     1.7426   1.8100   2.2012   2.2853   2.5725   2.7486   2.7521   2.9217
     3.1169   3.3131   3.3177   3.4537   3.7619   3.8467   4.2015   4.2891
     4.4196   4.5302   4.7442   4.7765   5.0515   5.0546   5.4253   5.5391
     5.9170   5.9499   6.0204   6.0634   6.3884   6.6737   6.9781   7.0798
     7.4892   7.5712   7.8858   8.1727   8.4759   8.5368   8.5915   8.6293
     8.6504   8.9796   9.0179   9.0939   9.0972   9.2043

          k = 0.2500-0.5000-0.5000 ( 21452 PWs)   bands (ev):

   -67.7693 -34.5514 -34.5514 -34.5491  -2.4184  -1.9583  -1.9266  -1.7565
    -1.1232  -0.8442  -0.8125  -0.5900   0.9687   1.3559   1.3873   1.5582
     2.1072   2.3250   2.3681   2.4527   2.4611   2.5535   2.5701   2.7423
     3.2111   3.4186   3.4466   3.5309   3.5391   3.6413   3.6684   3.8227
     4.3747   4.5551   4.5877   4.8747   5.3050   5.5805   5.6198   5.6863
     5.6946   5.7725   5.7990   6.0419   6.6743   6.7096   6.7629   6.8101
     7.7108   7.7310   7.7916   7.8675   8.4370   8.7061   8.7343   8.7732
     8.7891   8.7960   8.8682   8.8992   9.0896   9.1099

          k = 0.3750 0.3750 0.3750 ( 21434 PWs)   bands (ev):

   -67.7693 -34.5514 -34.5514 -34.5491  -2.4569  -1.9817  -1.6965  -1.6038
    -1.2871  -1.1366  -0.9808  -0.5556   1.2064   1.6067   1.6919   1.9239
     2.0783   2.1411   2.1579   2.2130   2.3882   2.6339   2.6750   2.7008
     3.2227   3.2336   3.2606   3.5175   3.7022   3.7638   3.7812   3.8429
     3.9567   4.2056   4.2958   4.5815   5.1910   5.3990   5.5391   5.9192
     5.9198   5.9434   6.8115   6.8167   6.9579   6.9642   7.0496   7.0706
     7.3779   7.4141   7.4674   7.4969   7.6198   7.6365   8.4505   8.5151
     8.5183   8.9161   9.0080   9.0464   9.2194   9.7386

          k = 0.3750 0.3750-0.5000 ( 21392 PWs)   bands (ev):

   -67.7693 -34.5514 -34.5514 -34.5491  -2.3872  -1.9284  -1.7306  -1.4806
    -1.4216  -1.2746  -1.0115  -0.7342   1.3389   1.8138   1.8759   1.9749
     2.1555   2.2924   2.3279   2.4434   2.4843   2.6009   2.8358   2.9150
     2.9481   3.0218   3.2271   3.3701   3.4169   3.5369   3.5637   3.6687
     3.8648   3.9675   4.0348   4.3624   5.4133   5.7180   6.1078   6.1208
     6.1702   6.2566   6.6068   6.6083   6.7057   6.7199   7.0381   7.0774
     7.3340   7.3436   7.6467   7.6886   7.7524   7.7767   8.1254   8.2223
     8.2669   8.2744   8.6684   8.9335   9.5452   9.8144

          k = 0.3750-0.5000-0.5000 ( 21412 PWs)   bands (ev):

   -67.7693 -34.5514 -34.5514 -34.5491  -2.3105  -1.7838  -1.7522  -1.6068
    -1.4231  -1.2260  -1.1941  -0.9427   1.5165   2.0665   2.0994   2.2151
     2.3240   2.4847   2.5385   2.6219   2.6303   2.7144   2.7279   2.8774
     2.8918   3.0646   3.0884   3.1618   3.1702   3.2700   3.3099   3.4439
     3.5672   3.6799   3.7141   4.1122   5.9770   6.2513   6.2994   6.3783
     6.3862   6.4572   6.4778   6.6739   6.8483   6.8771   6.9698   6.9774
     7.3189   7.3698   7.4286   7.5043   7.6531   7.8689   7.8921   7.9390
     7.9474   8.0248   8.0717   8.2949   9.8777  10.2556

          k =-0.5000-0.5000-0.5000 ( 21368 PWs)   bands (ev):

   -67.7693 -34.5514 -34.5514 -34.5491  -2.2482  -1.5502  -1.5502  -1.5288
    -1.5242  -1.4912  -1.4912  -1.1261   1.7823   2.6067   2.6067   2.6352
     2.8535   2.8544   2.8565   2.8565   2.8570   2.8572   2.8592   2.8592
     2.8632   2.8639   2.8641   2.8641   2.8728   2.8728   2.8767   2.8821
     3.1157   3.1240   3.1240   3.7276   6.5814   6.7919   6.7919   6.9132
     7.1127   7.1256   7.1256   7.1309   7.1327   7.1327   7.1331   7.1339
     7.1340   7.1340   7.1382   7.1391   7.1455   7.1858   7.1858   7.1991
     7.3063   7.4531   7.4531   7.6149  10.7712  10.9404

          k = 0.0000 0.1250 0.0000 ( 21419 PWs)   bands (ev):

   -67.7693 -34.5514 -34.5514 -34.5491  -3.2464  -1.7076  -1.2390  -0.9280
    -0.9257  -0.7646  -0.4068   0.3930   0.7197   0.7285   0.8720   1.2715
     1.2774   1.2778   1.2793   1.6384   1.8198   1.8259   2.0954   2.8810
     2.8888   2.9021   2.9065   3.9288   3.9866   3.9943   4.0065   4.4122
     4.9993   5.0236   6.1806   6.3378   6.3719   6.4472   6.4597   6.5180
     6.6032   6.7084   6.9155   7.0618   7.0728   7.0747   7.1098   7.5804
     7.6238   7.7200   7.8646   8.2315   8.2883   8.3066   8.4106   8.5694
     8.6174   8.6178   8.6227   8.6313   8.6703   8.7283

          k = 0.0000 0.2500 0.0000 ( 21418 PWs)   bands (ev):

   -67.7693 -34.5514 -34.5514 -34.5491  -3.1445  -2.0611  -1.2307  -0.8241
    -0.8218  -0.6619  -0.0554   0.2733   0.2777   0.2824   0.4762   1.3737
     1.3799   1.3818   1.3881   2.1631   2.4072   2.4413   2.4500   2.4693
     2.4702   2.5269   2.7576   3.5372   4.5430   4.6022   4.6101   4.6388
     5.1049   5.1237   5.3584   5.6241   5.6298   5.8352   6.0988   6.1548
     6.4394   6.4612   7.1460   7.1656   7.1701   7.2068   7.2586   7.4922
     7.7514   7.7631   7.7689   7.9181   7.9643   8.0591   8.1565   8.2089
     8.2310   8.2469   8.3419   8.4012   8.6469   8.6606

          k = 0.0000 0.3750 0.0000 ( 21446 PWs)   bands (ev):

   -67.7693 -34.5514 -34.5514 -34.5491  -2.9785  -2.4112  -1.1338  -0.6512
    -0.6487  -0.5097  -0.3133  -0.0996  -0.0961   0.1231   0.8979   1.5437
     1.5499   1.5526   1.5813   1.9912   2.0860   2.0907   2.0975   2.6858
     2.9404   3.1684   3.1775   3.4249   4.4876   4.7453   4.7598   4.9846
     5.1735   5.2020   5.2206   5.3371   5.3852   5.3894   5.7642   5.8051
     6.5283   6.6098   6.7785   6.8743   6.9111   6.9180   7.1421   7.3225
     7.3323   7.3550   7.3579   7.3685   7.8177   7.8461   7.8518   7.8906
     8.4958   8.7420   8.8046   8.9302   8.9358   8.9511

          k = 0.0000-0.5000 0.0000 ( 21426 PWs)   bands (ev):

   -67.7693 -34.5514 -34.5514 -34.5491  -2.8104  -2.6430  -1.0704  -0.4408
    -0.4126  -0.4124  -0.4065  -0.4009  -0.3872  -0.0634   1.3781   1.7069
     1.7786   1.7840   1.7842   1.7844   1.7906   1.7982   1.8449   2.1089
     3.6381   3.7263   3.9166   3.9348   3.9488   3.9494   4.1364   4.2133
     5.3955   5.4633   5.4931   5.4932   5.7874   6.0665   6.0947   6.0949
     6.0979   6.1057   6.1065   6.1310   6.8289   6.8552   6.8605   7.0608
     7.5171   7.5541   7.5544   7.5650   7.5687   7.5689   7.5692   7.6251
     8.6070   9.0070   9.0161   9.0294   9.0295   9.0406

          k = 0.1250 0.1250 0.0000 ( 21407 PWs)   bands (ev):

   -67.7693 -34.5514 -34.5514 -34.5491  -3.2123  -1.7468  -1.4517  -0.9534
    -0.8910  -0.4060  -0.3433   0.1029   0.7527   0.7538   0.7616   0.7639
     1.2578   1.3040   1.8527   1.8548   1.8606   1.8840   2.3570   2.3959
     2.5084   3.3663   3.3675   3.5418   3.5963   4.4409   4.4479   4.5277
     4.5547   5.0587   5.8858   5.9854   6.3567   6.3815   6.4002   6.5949
     6.6396   6.6530   6.6542   6.9531   6.9693   7.0500   7.0644   7.6008
     7.6369   7.7749   7.9778   8.0669   8.0972   8.1273   8.2177   8.3059
     8.3693   8.4189   8.7661   8.7802   8.8403   9.1245

          k = 0.1250 0.2500 0.0000 ( 21406 PWs)   bands (ev):

   -67.7693 -34.5514 -34.5514 -34.5491  -3.1106  -2.0342  -1.4808  -0.8817
    -0.7871  -0.3557  -0.2369   0.1900   0.3168   0.4005   0.7722   0.8655
     0.9755   1.7694   1.9507   1.9534   1.9612   2.0863   2.4958   2.4966
     2.9277   3.0314   3.1493   3.5823   4.0695   4.1298   4.5668   5.0649
     5.0921   5.1421   5.2416   5.5230   5.6509   5.6609   6.1852   6.2107
     6.4573   6.6197   6.6657   6.7328   7.0391   7.1978   7.2662   7.4461
     7.5788   7.6477   7.7377   7.7835   7.9265   7.9873   8.0286   8.1905
     8.2269   8.3463   8.4182   8.7539   8.9302   9.1235

          k = 0.2500 0.0000 0.1250 ( 21406 PWs)   bands (ev):

   -67.7693 -34.5514 -34.5514 -34.5491  -3.1123  -2.0408  -1.4271  -0.9590
    -0.7897  -0.2929  -0.2357   0.1806   0.3105   0.3124   0.8638   0.8715
     0.9690   1.8317   1.9455   1.9525   1.9562   1.9611   2.5037   2.5339
     2.9961   3.0395   3.0886   3.5803   4.0662   4.1340   4.5803   5.0549
     5.0766   5.1396   5.2411   5.6036   5.6387   5.6572   6.1217   6.2013
     6.4788   6.6134   6.6306   6.7467   7.0527   7.1997   7.2772   7.4428
     7.6342   7.6775   7.7315   7.7692   7.7809   7.9951   8.0234   8.2481
     8.2572   8.3472   8.4027   8.7648   8.9230   9.1408

          k = 0.1250 0.3750 0.0000 ( 21434 PWs)   bands (ev):

   -67.7693 -34.5514 -34.5514 -34.5491  -2.9450  -2.3783  -1.3562  -0.8416
    -0.6141  -0.5263  -0.2151  -0.0617   0.0620   0.4689   0.8679   1.0365
     1.1618   1.5676   1.5824   2.0941   2.1253   2.5103   2.6296   2.6652
     2.8251   3.1982   3.2019   3.7963   4.1946   4.5812   4.7665   4.7763
     4.8303   4.8881   5.2210   5.3139   5.3562   5.7865   5.8144   5.9332
     6.3613   6.4076   6.6610   6.7801   6.8139   6.8985   7.1051   7.2144
     7.2964   7.3109   7.4039   7.4699   7.5002   7.8307   7.9017   8.3360
     8.4084   8.4557   8.8563   8.9117   9.0837   9.2514

          k = 0.3750 0.0000 0.1250 ( 21434 PWs)   bands (ev):

   -67.7693 -34.5514 -34.5514 -34.5491  -2.9471  -2.3806  -1.3075  -0.8832
    -0.6169  -0.5309  -0.2307  -0.0657   0.0373   0.5248   0.8630   1.0408
     1.1641   1.5700   1.5859   2.0856   2.1273   2.5027   2.6231   2.6658
     2.7900   3.2124   3.2397   3.7877   4.1773   4.6208   4.7634   4.7736
     4.8430   4.8905   5.2553   5.2737   5.3557   5.7570   5.8084   5.9313
     6.3115   6.4222   6.6795   6.7821   6.8445   6.8992   7.0954   7.2303
     7.3038   7.3350   7.4244   7.4717   7.4757   7.8348   7.8813   8.2349
     8.3832   8.4827   8.8406   8.9705   9.1169   9.2513

          k = 0.1250-0.5000 0.0000 ( 21398 PWs)   bands (ev):

   -67.7693 -34.5514 -34.5514 -34.5491  -2.7784  -2.6079  -1.2526  -0.9333
    -0.4182  -0.3794  -0.3778  -0.3664   0.1735   0.2133   1.1626   1.2667
     1.2726   1.2787   1.8002   1.8052   2.3615   2.3624   2.3627   2.4208
     3.3804   3.3954   3.9331   3.9493   3.9785   3.9825   4.5296   4.5656
     4.8277   4.9286   5.4255   5.5250   5.5891   5.6030   5.6072   5.6841
     6.4183   6.6235   6.6291   6.6638   6.8841   6.9081   6.9830   7.0421
     7.0432   7.0818   7.1077   7.2016   7.4584   7.5398   8.1201   8.1219
     8.5364   8.6046   9.1567   9.1658   9.2423   9.5717

          k =-0.5000 0.0000 0.1250 ( 21398 PWs)   bands (ev):

   -67.7693 -34.5514 -34.5514 -34.5491  -2.7822  -2.6079  -1.2002  -0.9331
    -0.5234  -0.3794  -0.3780  -0.3727   0.1734   0.2807   1.1605   1.2669
     1.2725   1.2865   1.7968   1.8046   2.3614   2.3627   2.3673   2.4102
     3.3374   3.4074   3.9519   3.9678   3.9806   3.9819   4.5474   4.5477
     4.8823   4.9288   5.3806   5.5249   5.5556   5.6026   5.6057   5.6707
     6.4079   6.6285   6.6635   6.6640   6.8842   6.9695   7.0109   7.0420
     7.0448   7.0504   7.0816   7.1903   7.4585   7.5516   8.0928   8.1199
     8.5111   8.5334   9.1600   9.1647   9.2982   9.5700

          k = 0.2500 0.2500 0.0000 ( 21408 PWs)   bands (ev):

   -67.7693 -34.5514 -34.5514 -34.5491  -3.0095  -2.0147  -1.8001  -0.9309
    -0.6833  -0.5855   0.0955   0.3805   0.4182   0.4216   0.4479   0.6382
     1.3190   1.5070   1.5144   1.6560   2.5922   2.5949   2.5990   2.6007
     3.4699   3.4799   3.5620   3.6560   3.7328   3.8024   3.9720   4.6464
     4.7040   5.2188   5.6294   5.6318   5.7206   5.8251   5.8984   5.9059
     6.2748   6.2961   6.5778   6.6879   6.7134   6.8433   6.8507   6.8819
     6.9280   7.3331   7.7287   7.8459   8.1058   8.1301   8.3255   8.3512
     8.7071   8.7631   8.9407   8.9535   9.0030   9.1374

          k = 0.2500 0.3750 0.0000 ( 21434 PWs)   bands (ev):

   -67.7693 -34.5514 -34.5514 -34.5491  -2.8454  -2.2828  -1.7305  -1.1858
    -0.5213  -0.5104  -0.0400   0.0417   0.4332   0.5915   0.6717   0.9852
     1.1376   1.1393   1.2885   2.1852   2.6405   2.7661   2.8511   3.2733
     3.2903   3.3096   3.3133   3.7566   3.8228   4.2219   4.3408   4.3954
     4.5779   4.8701   4.8857   5.4042   5.8214   5.8540   5.9223   5.9705
     6.0231   6.0799   6.3765   6.3879   6.4715   6.5104   6.5668   6.8302
     6.9807   7.1543   7.7219   7.8913   8.0365   8.0862   8.3247   8.4826
     8.5156   8.8177   9.0052   9.0410   9.1140   9.2719

          k = 0.3750 0.0000 0.2500 ( 21434 PWs)   bands (ev):

   -67.7693 -34.5514 -34.5514 -34.5491  -2.8557  -2.2942  -1.6563  -1.1624
    -0.6305  -0.5141  -0.1178   0.0352   0.5862   0.5985   0.6201   1.0192
     1.1349   1.1440   1.2851   2.1947   2.6019   2.7660   2.8109   3.2101
     3.2613   3.3513   3.4292   3.7021   3.8679   4.2843   4.3908   4.3994
     4.5025   4.8671   4.8879   5.3584   5.7889   5.8314   5.9444   5.9604
     6.0144   6.0964   6.3941   6.4224   6.5131   6.5309   6.5585   6.8124
     6.9831   7.1481   7.5710   7.9733   8.0236   8.0951   8.3292   8.4466
     8.4770   8.8358   8.9288   9.1423   9.1485   9.3016

          k = 0.2500-0.5000 0.0000 ( 21376 PWs)   bands (ev):

   -67.7693 -34.5514 -34.5514 -34.5491  -2.6842  -2.5026  -1.5911  -1.3847
    -0.3432  -0.2758  -0.2741  -0.2630   0.5547   0.8107   0.8275   0.8353
     0.8383   1.0092   1.8925   1.9063   2.8223   2.9403   2.9990   3.0023
     3.0386   3.1606   3.8550   4.0124   4.0466   4.0815   4.1042   4.1508
     5.0263   5.0346   5.1161   5.1705   5.2836   5.2991   5.6229   5.6537
     6.1013   6.1778   6.1810   6.1817   6.6596   6.6962   6.8690   6.9328
     7.2853   7.2909   7.2956   7.3182   8.1080   8.2018   8.3348   8.3668
     8.5189   8.5616   8.7357   8.7374   9.7217   9.7942

          k =-0.5000 0.0000 0.2500 ( 21376 PWs)   bands (ev):

   -67.7693 -34.5514 -34.5514 -34.5491  -2.7017  -2.5027  -1.4904  -1.3844
    -0.5376  -0.2760  -0.2743  -0.2717   0.8186   0.8230   0.8262   0.8274
     0.8460   0.8638   1.8959   1.9031   2.8988   2.9865   2.9902   3.0016
     3.0022   3.0027   4.0341   4.0405   4.0459   4.0665   4.0808   4.0935
     5.1065   5.1251   5.1366   5.1525   5.1702   5.1930   5.5807   5.6228
     6.1712   6.1815   6.1832   6.2518   6.6596   6.7365   6.7969   6.9323
     7.2849   7.2887   7.2904   7.3391   7.9752   8.1023   8.3405   8.4563
     8.5197   8.6428   8.6861   8.7372   9.7855   9.7934

          k = 0.3750 0.3750 0.0000 ( 21364 PWs)   bands (ev):

   -67.7693 -34.5514 -34.5514 -34.5491  -2.6858  -2.1858  -2.0096  -1.5339
    -0.3755  -0.3377   0.0897   0.2073   0.2117   0.2157   0.6846   0.7630
     1.3041   1.3404   1.8349   1.8438   2.8387   2.8976   3.3507   3.4324
     3.4609   3.4746   3.4970   3.5303   3.8858   3.9267   4.1327   4.1435
     4.9094   4.9379   5.1079   5.1862   5.2097   5.5131   5.5598   5.6038
     5.6166   5.6505   6.0803   6.1298   6.6098   6.6112   6.6251   6.8412
     7.1884   7.2302   7.5446   7.6665   8.0619   8.2730   8.6967   8.7425
     8.7882   8.8403   9.1968   9.2036   9.4754   9.4958

          k = 0.3750-0.5000 0.0000 ( 21380 PWs)   bands (ev):

   -67.7693 -34.5514 -34.5514 -34.5491  -2.5392  -2.3274  -1.9082  -1.7679
    -0.1924  -0.1034  -0.1015  -0.0909   0.3412   0.4469   0.4498   0.4588
     1.5412   1.5505   2.0566   2.0745   2.5718   2.6099   3.0824   3.1535
     3.6892   3.7018   3.7041   3.7296   4.2038   4.2304   4.2393   4.2425
     4.7669   4.7758   4.7916   4.8095   5.2766   5.2982   5.3207   5.3219
     5.7847   5.8414   5.8451   5.8623   6.3031   6.3449   7.0071   7.0093
     7.5724   7.5783   7.6903   7.7439   7.9656   7.9761   7.9798   8.1326
     9.3615   9.4198   9.4755   9.4968   9.5312   9.5472

          k =-0.5000 0.0000 0.3750 ( 21380 PWs)   bands (ev):

   -67.7693 -34.5514 -34.5514 -34.5491  -2.5909  -2.3277  -1.7674  -1.7633
    -0.4795  -0.1079  -0.1041  -0.1017   0.4485   0.4497   0.4782   0.5657
     1.4973   1.5392   2.0627   2.0744   2.5672   2.6387   3.1577   3.2112
     3.5719   3.6845   3.6897   3.7017   4.1838   4.2304   4.2417   4.2438
     4.7112   4.7892   4.8092   4.8549   5.3217   5.3233   5.3250   5.5127
     5.6861   5.7845   5.8065   5.8315   6.3031   6.4199   6.9756   7.0090
     7.3215   7.5782   7.7495   7.8903   7.9672   7.9717   7.9794   8.1010
     9.2836   9.4194   9.4653   9.5098   9.5315   9.5492

          k =-0.5000-0.5000 0.0000 ( 21392 PWs)   bands (ev):

   -67.7693 -34.5514 -34.5514 -34.5491  -2.4277  -2.0852  -2.0795  -2.0795
    -0.0425   0.1363   0.1371   0.1391   0.1391   0.1428   0.1428   0.1570
     2.1956   2.2955   2.2955   2.3178   2.3189   2.3189   2.3249   2.3282
     4.2626   4.3556   4.3611   4.3636   4.3636   4.3653   4.3653   4.3696
     4.5336   4.6038   4.6038   4.6038   4.6100   4.6125   4.6245   4.6245
     6.0074   6.0155   6.0155   6.0931   6.5430   6.5430   6.5524   6.5706
     7.4808   7.4811   7.4811   7.5270   8.6584   8.6584   8.6754   8.7257
     8.7308   8.7308   8.7472   8.8088  10.0764  10.1663

          k = 0.1250 0.2500 0.1250 ( 21399 PWs)   bands (ev):

   -67.7693 -34.5514 -34.5514 -34.5491  -3.0784  -2.0150  -1.4998  -1.2269
    -0.5544  -0.2164  -0.1897  -0.0518   0.2355   0.4422   0.7643   0.9919
     1.4328   1.4450   1.4611   1.8693   2.1033   2.4928   2.5284   2.5311
     2.9693   3.2056   3.4627   3.5707   3.7721   4.4963   4.5258   4.7338
     4.7436   5.0167   5.2588   5.5739   5.6402   5.7226   5.9692   6.1843
     6.2090   6.3842   6.7755   7.0597   7.0945   7.1288   7.1787   7.2328
     7.3026   7.6422   7.6814   7.7837   7.8307   8.0421   8.1481   8.2076
     8.2547   8.3347   8.7180   8.7751   8.9104   9.1687

          k = 0.1250 0.3750 0.1250 ( 21424 PWs)   bands (ev):

   -67.7693 -34.5514 -34.5514 -34.5491  -2.9137  -2.3479  -1.3911  -1.0609
    -0.7608  -0.4982  -0.1788   0.0582   0.3685   0.5173   0.6444   0.9764
     1.1277   1.6131   1.6371   2.0977   2.1551   2.5494   2.6503   2.7343
     2.8539   3.2345   3.6644   3.9022   4.1184   4.3126   4.3911   4.7162
     4.7657   5.1684   5.2278   5.2544   5.4036   5.4353   5.4712   5.9242
     6.2531   6.3960   6.4234   6.7594   6.8906   6.9361   6.9993   7.2503
     7.2944   7.3683   7.3990   7.7017   7.7588   7.8557   7.9057   8.1055
     8.4211   8.5054   8.8777   8.9545   9.2359   9.3874

          k = 0.1250-0.5000 0.1250 ( 21386 PWs)   bands (ev):

   -67.7693 -34.5514 -34.5514 -34.5491  -2.7503  -2.5728  -1.2958  -0.9115
    -0.8845  -0.7387  -0.0617   0.1940   0.2206   0.3860   0.7576   0.7744
     1.5743   1.7951   1.8510   1.8519   1.8932   2.0848   2.9106   2.9332
     3.3085   3.3603   3.5681   3.5922   4.3853   4.4399   4.6411   4.6679
     4.7640   4.9551   4.9566   4.9626   5.1257   5.2516   6.0572   6.1371
     6.1542   6.1719   6.4313   6.5473   6.5592   6.7536   7.0390   7.2016
     7.4434   7.4800   7.5015   7.5651   7.5979   7.5994   7.6350   7.7029
     8.9448   9.1129   9.1264   9.1443   9.1929   9.2022

          k = 0.2500 0.2500 0.1250 ( 21396 PWs)   bands (ev):

   -67.7693 -34.5514 -34.5514 -34.5491  -2.9777  -1.9983  -1.7653  -1.2115
    -0.7737  -0.1759  -0.1007  -0.0945   0.4017   0.4490   0.9753   0.9974
     1.0042   1.5140   1.5405   2.0830   2.0944   2.1522   3.0644   3.1524
     3.1557   3.1739   3.6618   3.6796   3.7554   4.2734   4.2769   4.6414
     4.6885   4.7365   5.2420   5.2609   5.3293   5.7193   5.7602   6.2480
     6.3152   6.3430   6.3524   6.3789   6.8188   6.8604   6.9126   7.1918
     7.3924   7.4071   7.7947   7.8114   8.1305   8.1524   8.2954   8.3135
     8.4451   8.5162   8.8548   8.8946   9.1410   9.1529

          k = 0.2500 0.3750 0.1250 ( 21425 PWs)   bands (ev):

   -67.7693 -34.5514 -34.5514 -34.5491  -2.8147  -2.2533  -1.7060  -1.1890
    -0.9652  -0.4754  -0.0094   0.0750   0.4534   0.6232   0.7161   1.0382
     1.1707   1.2850   1.7067   2.1711   2.3210   2.6715   2.8142   2.8955
     3.3374   3.6810   3.7480   3.8461   3.9128   4.0117   4.3075   4.4189
     4.4763   4.8427   4.9863   5.2776   5.3299   5.5199   5.5777   5.8110
     5.9639   6.0126   6.1439   6.4632   6.4866   6.5419   6.9712   7.0440
     7.4120   7.4570   7.5826   7.9984   8.0621   8.3162   8.4237   8.4780
     8.5120   8.6536   8.9227   9.0128   9.0925   9.2116

          k = 0.3750 0.1250 0.2500 ( 21425 PWs)   bands (ev):

   -67.7693 -34.5514 -34.5514 -34.5491  -2.8228  -2.2622  -1.6353  -1.2112
    -0.9592  -0.5488  -0.0636   0.1281   0.4602   0.6236   0.7210   1.0539
     1.1725   1.3115   1.7170   2.1961   2.2538   2.6620   2.7932   2.9290
     3.3293   3.6759   3.7705   3.8292   3.9098   4.0639   4.3833   4.4092
     4.4497   4.8089   4.9616   5.2573   5.3094   5.4516   5.6533   5.8278
     5.9721   6.0283   6.1260   6.4336   6.4711   6.6167   7.0015   7.0612
     7.3900   7.4463   7.5866   7.9423   7.9559   8.3212   8.4012   8.5087
     8.5262   8.6715   8.9276   8.9991   9.1206   9.2423

          k = 0.2500-0.5000 0.1250 ( 21404 PWs)   bands (ev):

   -67.7693 -34.5514 -34.5514 -34.5491  -2.6570  -2.4676  -1.5767  -1.3500
    -0.7935  -0.7522   0.1392   0.3095   0.3117   0.3190   0.8595   0.8819
     1.3658   1.4058   1.9298   1.9394   2.4957   2.5195   2.9820   3.0030
     3.5401   3.5698   3.5860   3.5932   3.9847   4.0716   4.5967   4.6205
     4.6221   4.6673   5.0629   5.1132   5.1873   5.2189   5.6555   5.6928
     5.7142   5.7432   6.1326   6.2167   6.6797   6.7390   6.7672   6.7871
     7.5042   7.5433   7.8427   7.8502   8.2179   8.2236   8.3870   8.4072
     8.5341   8.5706   8.6998   8.7868   9.2292   9.3063

          k =-0.5000 0.1250 0.2500 ( 21404 PWs)   bands (ev):

   -67.7693 -34.5514 -34.5514 -34.5491  -2.6707  -2.4676  -1.4888  -1.3497
    -0.8527  -0.7938   0.0545   0.3010   0.3206   0.4091   0.8589   0.9149
     1.3680   1.4060   1.9315   1.9368   2.4964   2.5096   2.9499   3.0206
     3.4676   3.5332   3.6109   3.6739   4.0572   4.0723   4.5320   4.5547
     4.7023   4.7372   5.0267   5.0577   5.1969   5.2139   5.5405   5.6907
     5.7409   5.8222   6.1324   6.2554   6.7338   6.7390   6.7723   6.7866
     7.4529   7.5431   7.8428   7.8628   8.1516   8.2169   8.2505   8.3878
     8.5340   8.5816   8.7007   8.8970   9.3068   9.3260

          k = 0.3750 0.3750 0.1250 ( 21399 PWs)   bands (ev):

   -67.7693 -34.5514 -34.5514 -34.5491  -2.6566  -2.1586  -1.9747  -1.5053
    -0.8460  -0.3275  -0.3068   0.1752   0.2461   0.6872   0.7916   1.2397
     1.3384   1.4308   1.8765   1.8770   2.8213   2.9038   2.9978   3.0463
     3.3685   3.4547   3.5555   3.5579   4.0208   4.0406   4.5227   4.5606
     4.5645   4.6088   4.9774   5.1191   5.1191   5.1635   5.5195   5.6044
     5.6161   5.6542   6.0997   6.1320   6.1672   6.6655   6.6911   6.7740
     7.4626   7.7558   8.1094   8.1217   8.2585   8.2626   8.3988   8.6350
     8.6714   8.7127   9.1813   9.1920   9.2965   9.3187

          k = 0.3750-0.5000 0.1250 ( 21438 PWs)   bands (ev):

   -67.7693 -34.5514 -34.5514 -34.5491  -2.5142  -2.2924  -1.8794  -1.7331
    -0.6205  -0.6145  -0.1001  -0.0677   0.4050   0.4822   0.9392   1.0304
     1.5753   1.5988   2.0911   2.1073   2.5974   2.6409   3.1014   3.1836
     3.2079   3.2466   3.7391   3.7531   4.1465   4.1681   4.3841   4.4101
     4.6510   4.6817   4.8994   4.9405   5.2237   5.3077   5.3227   5.3507
     5.7051   5.7441   5.8422   5.8772   5.9538   6.0092   7.3181   7.3392
     7.4290   7.5100   7.8978   7.9402   8.2824   8.3365   8.5266   8.6121
     8.8792   8.8991   9.0167   9.0397   9.3841   9.3862

          k =-0.5000 0.1250 0.3750 ( 21438 PWs)   bands (ev):

   -67.7693 -34.5514 -34.5514 -34.5491  -2.5615  -2.2926  -1.7360  -1.7325
    -0.7942  -0.6210  -0.0674  -0.0506   0.3502   0.4822   1.0313   1.0752
     1.5385   1.5733   2.0962   2.1076   2.5972   2.6707   3.1268   3.1858
     3.2053   3.2603   3.7183   3.7432   4.1195   4.1735   4.3254   4.4078
     4.6869   4.7081   4.9347   4.9365   5.1476   5.2217   5.3816   5.3856
     5.6954   5.7392   5.8789   5.9332   5.9459   6.0532   7.3202   7.3371
     7.4037   7.5080   7.7409   7.8981   8.3387   8.4524   8.5190   8.5705
     8.7835   8.8981   9.0262   9.0374   9.3659   9.3748

          k =-0.5000-0.5000 0.1250 ( 21408 PWs)   bands (ev):

   -67.7693 -34.5514 -34.5514 -34.5491  -2.4066  -2.0502  -2.0446  -2.0446
    -0.4047  -0.3809  -0.3758  -0.3758   0.5764   0.7209   0.7240   0.7240
     2.2290   2.3263   2.3263   2.3517   2.3528   2.3528   2.3588   2.3621
     3.9070   3.9621   3.9635   3.9635   3.9689   3.9731   3.9924   3.9924
     4.9494   5.0605   5.0605   5.0622   5.0667   5.0667   5.0696   5.0714
     5.4473   5.4609   5.4609   5.5801   6.6226   6.6226   6.6350   6.6733
     7.9225   8.0470   8.0470   8.0515   8.2146   8.2146   8.2444   8.3534
     9.2286   9.2286   9.2925   9.3116   9.5969   9.6381

          k = 0.2500 0.3750 0.2500 ( 21397 PWs)   bands (ev):

   -67.7693 -34.5514 -34.5514 -34.5491  -2.7257  -2.1707  -1.6671  -1.4037
    -1.0804  -0.8380  -0.3670   0.1451   0.5320   0.8062   1.0938   1.2645
     1.3749   1.8075   1.8450   2.2015   2.3409   2.3543   2.5019   2.9120
     3.3773   3.7802   3.9273   3.9519   3.9684   4.0778   4.3600   4.4225
     4.4761   4.5445   4.6763   4.9020   5.0400   5.1437   5.4679   5.5887
     5.6011   5.7524   5.9959   6.2344   7.0407   7.0875   7.1590   7.2282
     7.5542   7.6173   7.6634   7.6859   7.7356   8.4034   8.4315   8.5885
     8.7991   8.9038   9.0148   9.2109   9.2551   9.3476

          k = 0.2500-0.5000 0.2500 ( 21422 PWs)   bands (ev):

   -67.7693 -34.5514 -34.5514 -34.5491  -2.5802  -2.3625  -1.5689  -1.2587
    -1.2317  -1.0750  -0.1507  -0.1365   0.6511   0.9483   0.9748   1.1399
     1.7774   1.9957   2.0490   2.0550   2.0944   2.2850   2.9581   3.0289
     3.2345   3.2525   3.9237   4.0866   4.1353   4.1735   4.1862   4.1862
     4.3468   4.4647   4.9964   5.0629   5.1941   5.2289   5.3036   5.3594
     5.4457   5.6265   6.3305   6.3463   6.3537   6.3693   7.2810   7.3625
     7.3640   7.4086   8.1862   8.2554   8.3211   8.3225   8.3904   8.5078
     8.7555   8.7844   8.7878   8.9156   9.2985   9.3776

          k = 0.3750 0.3750 0.2500 ( 21425 PWs)   bands (ev):

   -67.7693 -34.5514 -34.5514 -34.5491  -2.5731  -2.0825  -1.8702  -1.4390
    -1.2434  -0.7560  -0.7185  -0.2100   0.7828   1.1861   1.4149   1.4633
     1.5703   1.8570   1.9760   2.0671   2.5306   2.5644   2.9086   2.9723
     3.1520   3.1674   3.5134   3.5922   4.0395   4.1399   4.2127   4.4774
     4.5573   4.6386   4.6422   4.8110   4.8978   5.0819   5.2145   5.2337
     5.4490   6.2197   6.2559   6.2878   6.6991   6.7286   6.8716   6.9132
     7.7055   7.7631   7.8913   7.9249   8.2033   8.3528   8.3715   8.3870
     8.7721   9.1615   9.1646   9.2238   9.2973   9.4473

          k = 0.3750-0.5000 0.2500 ( 21448 PWs)   bands (ev):

   -67.7693 -34.5514 -34.5514 -34.5491  -2.4451  -2.1874  -1.7974  -1.6287
    -1.0709  -1.0096  -0.5165  -0.5041   0.9439   1.1319   1.4905   1.6672
     1.6870   1.7809   2.1959   2.2050   2.6409   2.7161   2.7842   2.8864
     3.1432   3.2736   3.3441   3.3696   3.8202   3.8480   4.2662   4.3358
     4.3617   4.4831   4.8643   4.8984   4.9356   5.0119   5.4189   5.4553
     5.9021   5.9141   6.0818   6.1056   6.4550   6.5045   7.0138   7.0422
     7.5419   7.5499   8.0489   8.0709   8.4394   8.5002   8.6242   8.6528
     8.8076   8.8782   9.0795   9.1029   9.1367   9.1865

          k =-0.5000 0.2500 0.3750 ( 21448 PWs)   bands (ev):

   -67.7693 -34.5514 -34.5514 -34.5491  -2.4770  -2.1876  -1.6702  -1.6281
    -1.1565  -1.0715  -0.5163  -0.4548   0.8761   1.1322   1.6737   1.6739
     1.6785   1.6797   2.1964   2.2076   2.6736   2.7453   2.7608   2.7658
     3.2913   3.2996   3.3255   3.3405   3.7996   3.8556   4.2953   4.3406
     4.3582   4.3753   4.8522   4.8641   4.9351   5.0406   5.4397   5.4539
     5.9554   5.9992   6.0158   6.0312   6.5063   6.5873   7.0127   7.0387
     7.5182   7.5460   7.9463   8.0474   8.5206   8.5344   8.5656   8.6004
     8.6900   8.8781   9.0966   9.1227   9.1562   9.1593

          k =-0.5000-0.5000 0.2500 ( 21452 PWs)   bands (ev):

   -67.7693 -34.5514 -34.5514 -34.5491  -2.3499  -1.9453  -1.9400  -1.9400
    -0.8311  -0.8252  -0.8252  -0.7712   1.1042   1.3705   1.3714   1.3714
     2.3307   2.4163   2.4163   2.4533   2.4544   2.4544   2.4604   2.4637
     3.5183   3.5314   3.5326   3.5326   3.5384   3.5421   3.5798   3.5798
     4.5680   4.5765   4.5765   4.7808   5.5403   5.6778   5.6778   5.6874
     5.6886   5.6886   5.6944   5.6969   6.7372   6.7372   6.7494   6.8054
     7.7099   7.7819   7.7819   7.8158   8.7890   8.7894   8.7901   8.7901
     8.7963   8.7997   8.8241   8.8241   9.0936   9.1004

          k = 0.3750-0.5000 0.3750 ( 21392 PWs)   bands (ev):

   -67.7693 -34.5514 -34.5514 -34.5491  -2.3568  -2.0128  -1.6817  -1.4675
    -1.4404  -1.3002  -0.8972  -0.8122   1.3658   1.8320   1.8593   1.9716
     2.1514   2.3236   2.3715   2.3924   2.4259   2.5924   2.7705   2.8333
     3.0298   3.0641   3.2474   3.4287   3.4592   3.4869   3.5319   3.6660
     3.8869   3.9818   4.0110   4.3592   5.5309   5.6255   6.0174   6.0430
     6.2358   6.2757   6.6324   6.6729   6.6802   6.6967   7.0970   7.1926
     7.1953   7.2766   7.6797   7.7037   7.7246   7.7475   8.1117   8.1729
     8.3506   8.3601   8.7465   8.8048   9.5740   9.8152

          k =-0.5000-0.5000 0.3750 ( 21412 PWs)   bands (ev):

   -67.7693 -34.5514 -34.5514 -34.5491  -2.2816  -1.7707  -1.7662  -1.7662
    -1.2132  -1.2061  -1.2061  -1.0291   1.5740   2.0784   2.0784   2.0840
     2.5005   2.5524   2.5524   2.6225   2.6237   2.6237   2.6296   2.6328
     3.1625   3.1636   3.1636   3.1696   3.1732   3.2291   3.2476   3.2476
     3.6908   3.7069   3.7069   4.0779   6.1435   6.3261   6.3261   6.3793
     6.3803   6.3803   6.3859   6.3890   6.9117   6.9117   6.9181   6.9847
     7.3339   7.4222   7.4222   7.4533   7.9397   7.9407   7.9407   7.9472
     7.9496   8.0154   8.0154   8.0683  10.0539  10.2734

     the Fermi energy is     7.8913 ev

!    total energy              =    -287.86783854 Ry
     Harris-Foulkes estimate   =    -287.86783854 Ry
     estimated scf accuracy    <          3.6E-09 Ry

     The total energy is the sum of the following terms:

     one-electron contribution =     -43.34157952 Ry
     hartree contribution      =      66.83120163 Ry
     xc contribution           =    -100.71656305 Ry
     ewald contribution        =    -210.64096348 Ry
     smearing contrib. (-TS)   =       0.00006588 Ry

     convergence has been achieved in  12 iterations

     Forces acting on atoms (cartesian axes, Ry/au):

     atom    1 type  1   force =     0.00000000    0.00000000    0.00000000
     atom    2 type  2   force =     0.00000000    0.00211080    0.00683113
     atom    3 type  2   force =     0.00211080    0.00000000    0.00683113
     atom    4 type  2   force =     0.00472838    0.00472838   -0.00000000
     atom    5 type  3   force =     0.00000000    0.00000000    0.00000000
     atom    6 type  2   force =     0.00000000    0.00211080   -0.00683113
     atom    7 type  2   force =     0.00211080    0.00000000   -0.00683113
     atom    8 type  2   force =    -0.00192489   -0.00192489   -0.00000000
     atom    9 type  2   force =     0.00000000    0.00000000    0.00000000
     atom   10 type  2   force =     0.00000000   -0.00211080    0.00683113
     atom   11 type  2   force =     0.00029862    0.00000000    0.00004831
     atom   12 type  2   force =     0.00472838   -0.00472838    0.00000000
     atom   13 type  2   force =     0.00000000    0.00000000    0.00000000
     atom   14 type  2   force =     0.00000000   -0.00211080   -0.00683113
     atom   15 type  2   force =     0.00029862    0.00000000   -0.00004831
     atom   16 type  2   force =    -0.00192489    0.00192489   -0.00000000
     atom   17 type  2   force =     0.00000000    0.00000000    0.00000000
     atom   18 type  2   force =     0.00000000    0.00029862    0.00004831
     atom   19 type  2   force =    -0.00211080    0.00000000    0.00683113
     atom   20 type  2   force =    -0.00472838    0.00472838    0.00000000
     atom   21 type  2   force =     0.00000000    0.00000000    0.00000000
     atom   22 type  2   force =     0.00000000    0.00029862   -0.00004831
     atom   23 type  2   force =    -0.00211080    0.00000000   -0.00683113
     atom   24 type  2   force =     0.00192489   -0.00192489   -0.00000000
     atom   25 type  2   force =     0.00000000    0.00000000    0.00000000
     atom   26 type  2   force =     0.00000000   -0.00029862    0.00004831
     atom   27 type  2   force =    -0.00029862    0.00000000    0.00004831
     atom   28 type  2   force =    -0.00472838   -0.00472838   -0.00000000
     atom   29 type  2   force =     0.00000000    0.00000000    0.00000000
     atom   30 type  2   force =     0.00000000   -0.00029862   -0.00004831
     atom   31 type  2   force =    -0.00029862    0.00000000   -0.00004831
     atom   32 type  2   force =     0.00192489    0.00192489    0.00000000

     Total force =     0.024863     Total SCF correction =     0.000079


     Computing stress (Cartesian axis) and pressure

          total   stress  (Ry/bohr**3)                   (kbar)     P=       -2.89
  -0.00002092   0.00000000   0.00000000           -3.08        0.00        0.00
   0.00000000  -0.00002092   0.00000000            0.00       -3.08        0.00
   0.00000000   0.00000000  -0.00001709            0.00        0.00       -2.51


     BFGS Geometry Optimization

     number of scf cycles    =   1
     number of bfgs steps    =   0

     energy   new            =    -287.8678385384 Ry

     new trust radius        =       0.0071498139 bohr
     new conv_thr            =       0.0000000100 Ry


ATOMIC_POSITIONS (angstrom)
Mg            0.0000000000        0.0000000000        0.0000000000
Al            0.0000000000        2.0261169883        2.0286148790
Al            2.0261169883        0.0000000000        2.0286148790
Al            2.0275021511        2.0275021511       -0.0000000000
Si            0.0000000000        0.0000000000        4.0500000000
Al            0.0000000000        2.0261169883        6.0713851210
Al            2.0261169883        0.0000000000        6.0713851210
Al            2.0239813920        2.0239813920        4.0500000000
Al            0.0000000000        4.0500000000        0.0000000000
Al            0.0000000000        6.0738830117        2.0286148790
Al            2.0251580238        4.0500000000        2.0250255651
Al            2.0275021511        6.0724978489        0.0000000000
Al            0.0000000000        4.0500000000        4.0500000000
Al            0.0000000000        6.0738830117        6.0713851210
Al            2.0251580238        4.0500000000        6.0749744349
Al            2.0239813920        6.0760186080        4.0500000000
Al            4.0500000000        0.0000000000        0.0000000000
Al            4.0500000000        2.0251580238        2.0250255651
Al            6.0738830117        0.0000000000        2.0286148790
Al            6.0724978489        2.0275021511        0.0000000000
Al            4.0500000000        0.0000000000        4.0500000000
Al            4.0500000000        2.0251580238        6.0749744349
Al            6.0738830117        0.0000000000        6.0713851210
Al            6.0760186080        2.0239813920        4.0500000000
Al            4.0500000000        4.0500000000        0.0000000000
Al            4.0500000000        6.0748419762        2.0250255651
Al            6.0748419762        4.0500000000        2.0250255651
Al            6.0724978489        6.0724978489       -0.0000000000
Al            4.0500000000        4.0500000000        4.0500000000
Al            4.0500000000        6.0748419762        6.0749744349
Al            6.0748419762        4.0500000000        6.0749744349
Al            6.0760186080        6.0760186080        4.0500000000



     Writing output data file qe_tmp/Al30MgSi_2NN.save/
     NEW-OLD atomic charge density approx. for the potential

     total cpu time spent up to now is      335.0 secs

     Self-consistent Calculation

     iteration #  1     ecut=    50.00 Ry     beta= 0.70
     Davidson diagonalization with overlap
     ethr =  1.00E-06,  avg # of iterations =  3.1

     Threshold (ethr) on eigenvalues was too large:
     Diagonalizing with lowered threshold

     Davidson diagonalization with overlap
     ethr =  4.93E-08,  avg # of iterations =  4.1

     total cpu time spent up to now is      377.5 secs

     total energy              =    -287.86836720 Ry
     Harris-Foulkes estimate   =    -287.86842824 Ry
     estimated scf accuracy    <       0.00007491 Ry

     iteration #  2     ecut=    50.00 Ry     beta= 0.70
     Davidson diagonalization with overlap
     ethr =  7.20E-08,  avg # of iterations =  4.3

     total cpu time spent up to now is      402.7 secs

     total energy              =    -287.86831074 Ry
     Harris-Foulkes estimate   =    -287.86851696 Ry
     estimated scf accuracy    <       0.00073379 Ry

     iteration #  3     ecut=    50.00 Ry     beta= 0.70
     Davidson diagonalization with overlap
     ethr =  7.20E-08,  avg # of iterations =  4.0

     total cpu time spent up to now is      425.8 secs

     total energy              =    -287.86840751 Ry
     Harris-Foulkes estimate   =    -287.86842066 Ry
     estimated scf accuracy    <       0.00004531 Ry

     iteration #  4     ecut=    50.00 Ry     beta= 0.70
     Davidson diagonalization with overlap
     ethr =  4.36E-08,  avg # of iterations =  2.1

     total cpu time spent up to now is      443.7 secs

     total energy              =    -287.86841370 Ry
     Harris-Foulkes estimate   =    -287.86841382 Ry
     estimated scf accuracy    <       0.00000044 Ry

     iteration #  5     ecut=    50.00 Ry     beta= 0.70
     Davidson diagonalization with overlap
     ethr =  4.26E-10,  avg # of iterations =  4.9

     total cpu time spent up to now is      471.8 secs

     total energy              =    -287.86841399 Ry
     Harris-Foulkes estimate   =    -287.86841422 Ry
     estimated scf accuracy    <       0.00000077 Ry

     iteration #  6     ecut=    50.00 Ry     beta= 0.70
     Davidson diagonalization with overlap
     ethr =  4.26E-10,  avg # of iterations =  2.7

     total cpu time spent up to now is      491.3 secs

     total energy              =    -287.86841409 Ry
     Harris-Foulkes estimate   =    -287.86841414 Ry
     estimated scf accuracy    <       0.00000019 Ry

     iteration #  7     ecut=    50.00 Ry     beta= 0.70
     Davidson diagonalization with overlap
     ethr =  1.79E-10,  avg # of iterations =  2.5

     total cpu time spent up to now is      509.2 secs

     total energy              =    -287.86841411 Ry
     Harris-Foulkes estimate   =    -287.86841412 Ry
     estimated scf accuracy    <       0.00000002 Ry

     iteration #  8     ecut=    50.00 Ry     beta= 0.70
     Davidson diagonalization with overlap
     ethr =  1.64E-11,  avg # of iterations =  3.5

     total cpu time spent up to now is      531.2 secs

     End of self-consistent calculation

          k = 0.0000 0.0000 0.0000 ( 21367 PWs)   bands (ev):

   -67.7730 -34.5550 -34.5550 -34.5526  -3.2828  -1.5737  -0.9701  -0.9634
    -0.9634  -0.9607  -0.7308   0.6370   1.1363   1.1363   1.2343   1.2355
     1.2392   1.2445   1.2451   1.2451   1.3428   1.3428   1.7545   3.2839
     3.3062   3.3062   3.3202   3.4398   3.5264   3.5273   3.5273   4.9643
     4.9643   4.9912   6.2882   6.3037   6.3071   6.7460   6.7460   6.9728
     7.0351   7.0351   7.0445   7.0467   7.0697   7.0827   7.0827   7.2678
     7.2678   8.0418   8.0418   8.0447   8.0751   8.0774   8.1212   8.1339
     8.9594   8.9633   8.9633   8.9639   9.0907   9.1049

          k = 0.0000 0.0000 0.1250 ( 21419 PWs)   bands (ev):

   -67.7730 -34.5550 -34.5550 -34.5526  -3.2503  -1.7129  -1.1438  -0.9354
    -0.9290  -0.9290  -0.3211   0.5019   0.7212   0.7220   0.7220   1.2097
     1.2692   1.2692   1.2787   1.8146   1.8324   1.8324   2.0222   2.8726
     2.9026   2.9026   2.9062   3.9163   3.9946   3.9946   4.0059   4.4334
     4.9968   4.9968   6.3100   6.3377   6.4251   6.4251   6.4543   6.4954
     6.5739   6.5739   6.9262   7.0381   7.0381   7.0791   7.1020   7.6398
     7.6398   7.7261   7.8636   8.2892   8.2892   8.2962   8.3692   8.5770
     8.5770   8.5913   8.6113   8.6377   8.6702   8.6963

          k = 0.0000 0.0000 0.2500 ( 21418 PWs)   bands (ev):

   -67.7730 -34.5550 -34.5550 -34.5526  -3.1546  -2.0406  -1.1664  -0.8314
    -0.8260  -0.8260   0.2318   0.2745   0.2817   0.2817   0.2846   1.2576
     1.3688   1.3688   1.3812   2.4218   2.4592   2.4689   2.4689   2.4699
     2.4739   2.4739   2.6010   3.5544   4.5269   4.6105   4.6105   4.6382
     5.0982   5.0982   5.6036   5.6235   5.6235   5.6271   6.1314   6.1314
     6.4195   6.4396   7.1107   7.1107   7.1764   7.1988   7.2658   7.4926
     7.7415   7.7415   7.7677   7.8968   7.9959   8.2154   8.2229   8.2229
     8.2373   8.2373   8.2417   8.4414   8.5922   8.6522

          k = 0.0000 0.0000 0.3750 ( 21446 PWs)   bands (ev):

   -67.7730 -34.5550 -34.5550 -34.5526  -3.0074  -2.3629  -1.1152  -0.6582
    -0.6559  -0.6559  -0.1046  -0.0925  -0.0925   0.0055   0.9300   1.3902
     1.5306   1.5306   1.5518   2.0974   2.1095   2.1095   2.1272   2.6980
     3.1670   3.1749   3.1749   3.2350   4.7447   4.7575   4.7575   4.7593
     5.1630   5.1630   5.2119   5.3365   5.3888   5.3888   5.7974   5.7974
     6.4928   6.6080   6.7529   6.8980   6.8980   6.9105   7.1436   7.2377
     7.2377   7.3386   7.3593   7.3618   7.8583   7.8860   7.9447   7.9447
     8.5298   8.7306   8.7306   8.7910   8.9710   8.9710

          k = 0.0000 0.0000-0.5000 ( 21426 PWs)   bands (ev):

   -67.7730 -34.5550 -34.5550 -34.5526  -2.8943  -2.5374  -1.0843  -0.4657
    -0.4657  -0.4256  -0.4058  -0.3509  -0.3509  -0.0851   1.2785   1.6865
     1.6865   1.7045   1.7757   1.8060   1.8517   1.8867   1.8867   2.1873
     3.8712   3.9086   3.9086   3.9331   3.9376   3.9723   3.9723   4.0523
     5.3208   5.3208   5.6106   5.6106   5.7820   6.0409   6.0547   6.0547
     6.0956   6.0960   6.1456   6.1456   6.7440   6.8122   6.8774   7.1296
     7.3125   7.3125   7.5464   7.5559   7.5761   7.6339   7.8046   7.8046
     8.5838   8.9372   8.9372   9.0053   9.0731   9.1095

          k = 0.0000 0.1250 0.1250 ( 21407 PWs)   bands (ev):

   -67.7730 -34.5550 -34.5550 -34.5526  -3.2162  -1.7649  -1.3775  -1.0361
    -0.8944  -0.4741  -0.2446   0.1709   0.5234   0.7092   0.8134   0.8957
     1.2741   1.3433   1.6753   1.8048   1.9070   2.0234   2.3835   2.4042
     2.4848   3.3553   3.3784   3.5381   3.5958   4.4417   4.4645   4.5238
     4.5586   5.0330   5.8678   6.0784   6.3703   6.3719   6.4166   6.5051
     6.5973   6.6355   6.7178   6.9377   6.9416   7.0041   7.1199   7.4996
[...]
     3.2751   3.3344   3.5892   3.6003   4.3668   4.4254   4.6698   4.6886
     4.7674   4.9376   4.9489   4.9713   5.1404   5.2388   6.0633   6.1248
     6.1677   6.1743   6.4320   6.5097   6.5702   6.8009   7.0405   7.2021
     7.4592   7.4639   7.5018   7.5732   7.5787   7.5988   7.6317   7.6948
     8.9600   9.0935   9.1277   9.1470   9.1939   9.2059

          k = 0.2500 0.2500 0.1250 ( 21396 PWs)   bands (ev):

   -67.7980 -34.5786 -34.5786 -34.5761  -2.9993  -2.0340  -1.7756  -1.1965
    -0.8037  -0.1643  -0.1083  -0.0881   0.4118   0.4378   0.9797   0.9836
     1.0036   1.5059   1.5313   2.0815   2.0966   2.1674   3.0688   3.1484
     3.1590   3.1678   3.6476   3.6681   3.7665   4.2769   4.2848   4.6318
     4.6831   4.7139   5.2453   5.2631   5.3335   5.7241   5.7753   6.2542
     6.3080   6.3296   6.3477   6.3779   6.8309   6.8638   6.9378   7.2106
     7.3817   7.4048   7.8030   7.8041   8.1191   8.1461   8.2921   8.3220
     8.4369   8.5049   8.8696   8.9020   9.1169   9.1337

          k = 0.2500 0.3750 0.1250 ( 21425 PWs)   bands (ev):

   -67.7980 -34.5786 -34.5786 -34.5761  -2.8383  -2.2767  -1.7249  -1.1944
    -0.9754  -0.4645  -0.0008   0.0719   0.4579   0.6197   0.7095   1.0365
     1.1652   1.2799   1.7039   2.1744   2.3109   2.6659   2.8235   2.8942
     3.3333   3.6796   3.7421   3.8346   3.8984   4.0103   4.3046   4.4153
     4.4843   4.8505   4.9868   5.2794   5.3356   5.5193   5.5707   5.8221
     5.9642   6.0173   6.1368   6.4695   6.5101   6.5426   6.9768   7.0414
     7.4155   7.4573   7.5815   7.9984   8.0663   8.3037   8.4218   8.4849
     8.5187   8.6484   8.9115   9.0137   9.0937   9.2090

          k = 0.3750 0.1250 0.2500 ( 21425 PWs)   bands (ev):

   -67.7980 -34.5786 -34.5786 -34.5761  -2.8500  -2.2873  -1.6315  -1.2197
    -0.9676  -0.5615  -0.0657   0.1279   0.4528   0.6234   0.7127   1.0606
     1.1722   1.3226   1.7261   2.1821   2.2530   2.6508   2.7911   2.9326
     3.3176   3.6852   3.7638   3.8219   3.9042   4.0695   4.3834   4.4226
     4.4631   4.7911   4.9670   5.2372   5.3009   5.4511   5.6383   5.8469
     5.9772   6.0288   6.1331   6.4365   6.4980   6.6149   6.9977   7.0750
     7.3771   7.4452   7.5884   7.9313   7.9408   8.3350   8.4002   8.5046
     8.5303   8.6720   8.9360   9.0071   9.1133   9.2428

          k = 0.2500-0.5000 0.1250 ( 21404 PWs)   bands (ev):

   -67.7980 -34.5786 -34.5786 -34.5761  -2.6869  -2.4824  -1.5982  -1.3668
    -0.8059  -0.7274   0.1654   0.2943   0.2968   0.3274   0.8484   0.8881
     1.3764   1.3908   1.9236   1.9330   2.4838   2.5381   2.9602   2.9886
     3.5502   3.5562   3.5923   3.6058   3.9722   4.0570   4.5810   4.6223
     4.6231   4.6734   5.0521   5.1357   5.1984   5.2247   5.6616   5.6779
     5.7095   5.7507   6.1227   6.2578   6.6948   6.7245   6.7626   6.7949
     7.5187   7.5332   7.8464   7.8523   8.2050   8.2394   8.3866   8.4052
     8.5244   8.5545   8.6884   8.8106   9.2252   9.3139

          k =-0.5000 0.1250 0.2500 ( 21404 PWs)   bands (ev):

   -67.7980 -34.5786 -34.5786 -34.5761  -2.7056  -2.4825  -1.4790  -1.3661
    -0.8601  -0.8065   0.0606   0.2770   0.3155   0.4149   0.8466   0.9404
     1.3916   1.4007   1.9222   1.9286   2.4829   2.5119   2.9344   3.0176
     3.4846   3.5282   3.6032   3.6618   4.0608   4.0931   4.5207   4.5533
     4.6918   4.7400   5.0107   5.0476   5.2136   5.2141   5.5517   5.6801
     5.7496   5.8194   6.1213   6.3045   6.7249   6.7298   6.7908   6.7952
     7.4375   7.5296   7.8517   7.8575   8.1597   8.2005   8.2532   8.3941
     8.5263   8.5965   8.6879   8.9198   9.3073   9.3231

          k = 0.3750 0.3750 0.1250 ( 21399 PWs)   bands (ev):

   -67.7980 -34.5786 -34.5786 -34.5761  -2.6830  -2.1866  -1.9849  -1.5219
    -0.8428  -0.3141  -0.3022   0.1839   0.2441   0.6916   0.7814   1.2399
     1.3265   1.4232   1.8676   1.8688   2.8299   2.9041   2.9862   3.0364
     3.3707   3.4493   3.5463   3.5508   4.0174   4.0354   4.5286   4.5620
     4.5632   4.6086   4.9979   5.1057   5.1173   5.1705   5.5229   5.6120
     5.6219   5.6467   6.1220   6.1314   6.1629   6.6753   6.6905   6.7747
     7.4668   7.7616   8.1058   8.1316   8.2555   8.2634   8.3964   8.6498
     8.6624   8.7237   9.1881   9.1933   9.2979   9.3198

          k = 0.3750-0.5000 0.1250 ( 21438 PWs)   bands (ev):

   -67.7980 -34.5787 -34.5786 -34.5761  -2.5480  -2.3073  -1.8966  -1.7486
    -0.6339  -0.5883  -0.0813  -0.0696   0.4179   0.4671   0.9481   1.0151
     1.5636   1.5946   2.0815   2.1005   2.5872   2.6319   3.0986   3.1731
     3.1915   3.2590   3.7326   3.7616   4.1461   4.1640   4.3920   4.4099
     4.6539   4.6747   4.9116   4.9374   5.2135   5.3124   5.3197   5.3568
     5.6988   5.7684   5.8549   5.8612   5.9570   6.0266   7.3229   7.3409
     7.4262   7.5143   7.8889   7.9575   8.3014   8.3271   8.5320   8.6126
     8.8861   8.8896   9.0246   9.0348   9.3817   9.3877

          k =-0.5000 0.1250 0.3750 ( 21438 PWs)   bands (ev):

   -67.7980 -34.5787 -34.5786 -34.5761  -2.6092  -2.3080  -1.7472  -1.7012
    -0.8246  -0.6351  -0.0808   0.0009   0.3135   0.4676   1.0179   1.1193
     1.5514   1.5575   2.0822   2.0963   2.5945   2.6786   3.1269   3.1792
     3.1869   3.2921   3.7099   3.7414   4.1135   4.1703   4.3195   4.4115
     4.6820   4.7145   4.9182   4.9420   5.1143   5.2099   5.3769   5.4011
     5.6914   5.7634   5.8674   5.9554   5.9635   6.0895   7.3254   7.3289
     7.4043   7.5111   7.7120   7.8903   8.3262   8.4608   8.5236   8.5977
     8.7791   8.8810   9.0185   9.0402   9.3636   9.3756

          k =-0.5000-0.5000 0.1250 ( 21408 PWs)   bands (ev):

   -67.7980 -34.5786 -34.5786 -34.5761  -2.4471  -2.0702  -2.0548  -2.0548
    -0.4010  -0.3829  -0.3829  -0.3422   0.6106   0.7006   0.7143   0.7143
     2.2230   2.3205   2.3205   2.3355   2.3355   2.3369   2.3559   2.3561
     3.9191   3.9440   3.9440   3.9470   3.9669   3.9796   4.0183   4.0183
     4.9588   5.0451   5.0451   5.0473   5.0658   5.0729   5.0856   5.0856
     5.4276   5.4584   5.4584   5.6303   6.6203   6.6203   6.6455   6.6776
     7.9588   8.0315   8.0435   8.0435   8.2156   8.2156   8.2608   8.3545
     9.2262   9.2262   9.2914   9.3081   9.6162   9.6356

          k = 0.2500 0.3750 0.2500 ( 21397 PWs)   bands (ev):

   -67.7980 -34.5786 -34.5786 -34.5761  -2.7543  -2.1971  -1.6807  -1.3918
    -1.1113  -0.8281  -0.3517   0.1594   0.5053   0.8160   1.0686   1.2545
     1.3865   1.7962   1.8606   2.1823   2.3374   2.3559   2.5212   2.9008
     3.3848   3.7630   3.9161   3.9415   3.9736   4.0857   4.3437   4.3998
     4.4917   4.5455   4.6932   4.8943   5.0494   5.1547   5.4520   5.5924
     5.6000   5.7927   5.9716   6.2577   7.0475   7.0813   7.1565   7.2228
     7.5571   7.6220   7.6595   7.6960   7.7399   8.3886   8.4338   8.5664
     8.8270   8.8858   9.0173   9.2196   9.2573   9.3399

          k = 0.2500-0.5000 0.2500 ( 21422 PWs)   bands (ev):

   -67.7980 -34.5786 -34.5786 -34.5761  -2.6169  -2.3775  -1.5803  -1.2965
    -1.2226  -1.0585  -0.1500  -0.1110   0.6317   0.9109   0.9839   1.1579
     1.7900   1.9732   2.0393   2.0586   2.0962   2.2860   2.9310   3.0065
     3.2569   3.2680   3.9268   4.0799   4.1323   4.1597   4.1726   4.2067
     4.3544   4.4536   4.9877   5.0381   5.2116   5.2195   5.3281   5.3303
     5.4680   5.6696   6.3181   6.3452   6.3671   6.3732   7.2994   7.3376
     7.3615   7.4210   8.1823   8.2596   8.3217   8.3258   8.3919   8.5108
     8.7396   8.7729   8.7849   8.9132   9.2712   9.3627

          k = 0.3750 0.3750 0.2500 ( 21425 PWs)   bands (ev):

   -67.7980 -34.5786 -34.5786 -34.5761  -2.6055  -2.1116  -1.8812  -1.4448
    -1.2532  -0.7618  -0.6884  -0.1952   0.7743   1.1855   1.4022   1.4481
     1.5723   1.8420   1.9651   2.0637   2.5338   2.5847   2.8985   2.9674
     3.1502   3.1702   3.4964   3.5717   4.0601   4.1434   4.2084   4.4762
     4.5532   4.6444   4.6471   4.8107   4.8872   5.0894   5.2310   5.2319
     5.4688   6.2157   6.2463   6.2909   6.7003   6.7232   6.8735   6.9217
     7.7141   7.7605   7.8818   7.9260   8.2031   8.3633   8.3805   8.3922
     8.7730   9.1598   9.1813   9.2233   9.2977   9.4314

          k = 0.3750-0.5000 0.2500 ( 21448 PWs)   bands (ev):

   -67.7980 -34.5787 -34.5786 -34.5761  -2.4862  -2.2026  -1.8139  -1.6452
    -1.0829  -0.9855  -0.5296  -0.4631   0.9485   1.1148   1.4938   1.6435
     1.6828   1.7766   2.1889   2.1960   2.6417   2.7080   2.7657   2.8883
     3.1510   3.2681   3.3492   3.3546   3.8202   3.8608   4.3019   4.3176
     4.3560   4.4827   4.8584   4.9031   4.9212   5.0566   5.4063   5.4541
     5.8964   5.9160   6.0918   6.1102   6.4636   6.4893   7.0061   7.0531
     7.5427   7.5488   8.0369   8.0925   8.4347   8.5129   8.6212   8.6520
     8.8243   8.8652   9.0814   9.1110   9.1303   9.2084

          k =-0.5000 0.2500 0.3750 ( 21448 PWs)   bands (ev):

   -67.7980 -34.5787 -34.5786 -34.5761  -2.5265  -2.2032  -1.6442  -1.6437
    -1.1782  -1.0844  -0.5290  -0.3999   0.8406   1.1159   1.6603   1.6639
     1.6786   1.7272   2.1817   2.1985   2.6652   2.7401   2.7469   2.7678
     3.2823   3.2955   3.3379   3.3645   3.7951   3.8730   4.2570   4.3273
     4.3504   4.4047   4.8460   4.8551   4.9195   5.0953   5.4226   5.4400
     5.9368   6.0009   6.0469   6.0543   6.4962   6.6161   7.0040   7.0459
     7.5209   7.5521   7.9447   8.0305   8.4983   8.5226   8.5584   8.6043
     8.6732   8.8637   9.1068   9.1443   9.1470   9.1717

          k =-0.5000-0.5000 0.2500 ( 21452 PWs)   bands (ev):

   -67.7980 -34.5786 -34.5786 -34.5761  -2.3975  -1.9653  -1.9510  -1.9510
    -0.8510  -0.8310  -0.8310  -0.6995   1.1278   1.3500   1.3591   1.3591
     2.3264   2.4062   2.4062   2.4372   2.4372   2.4386   2.4555   2.4575
     3.5132   3.5132   3.5165   3.5367   3.5407   3.5502   3.6120   3.6120
     4.5482   4.5800   4.5800   4.8359   5.5370   5.6682   5.6682   5.6723
     5.6904   5.6933   5.6933   5.6987   6.7346   6.7346   6.7598   6.8112
     7.6927   7.7819   7.7819   7.8326   8.7699   8.7699   8.7738   8.7983
     8.8002   8.8262   8.8522   8.8522   9.0983   9.1511

          k = 0.3750-0.5000 0.3750 ( 21392 PWs)   bands (ev):

   -67.7980 -34.5786 -34.5786 -34.5761  -2.4104  -2.0287  -1.6880  -1.5050
    -1.4314  -1.2920  -0.9094  -0.7513   1.3473   1.7925   1.8666   1.9752
     2.1470   2.2963   2.3756   2.3787   2.4240   2.6010   2.7572   2.8144
     3.0472   3.0775   3.2363   3.4159   3.4469   3.4931   3.5566   3.6699
     3.9071   3.9472   4.0283   4.4177   5.5237   5.6089   5.9983   6.0208
     6.2560   6.2836   6.6170   6.6759   6.6921   6.7062   7.1029   7.1687
     7.1921   7.2976   7.6770   7.7038   7.7305   7.7516   8.0898   8.1606
     8.3777   8.3860   8.7375   8.8390   9.5774   9.8159

          k =-0.5000-0.5000 0.3750 ( 21412 PWs)   bands (ev):

   -67.7980 -34.5786 -34.5786 -34.5761  -2.3397  -1.7908  -1.7799  -1.7799
    -1.2329  -1.2090  -1.2090  -0.9452   1.5771   2.0577   2.0577   2.0628
     2.5008   2.5332   2.5332   2.6070   2.6070   2.6078   2.6179   2.6260
     3.1438   3.1438   3.1476   3.1685   3.1881   3.2665   3.2882   3.2882
     3.6719   3.7198   3.7198   4.1341   6.1263   6.3274   6.3274   6.3637
     6.3637   6.3640   6.3795   6.3906   6.9092   6.9092   6.9259   6.9802
     7.3286   7.4261   7.4261   7.4725   7.9215   7.9215   7.9243   7.9506
     7.9517   8.0501   8.0501   8.1188  10.0962  10.2511

     the Fermi energy is     7.8916 ev

!    total energy              =    -287.87014508 Ry
     Harris-Foulkes estimate   =    -287.87014508 Ry
     estimated scf accuracy    <          8.6E-11 Ry

     The total energy is the sum of the following terms:

     one-electron contribution =     -42.09264599 Ry
     hartree contribution      =      66.19589096 Ry
     xc contribution           =    -100.72342234 Ry
     ewald contribution        =    -211.24983519 Ry
     smearing contrib. (-TS)   =      -0.00013251 Ry

     convergence has been achieved in  10 iterations

     Forces acting on atoms (cartesian axes, Ry/au):

     atom    1 type  1   force =     0.00000000    0.00000000    0.00000000
     atom    2 type  2   force =     0.00000000   -0.00024260    0.00020922
     atom    3 type  2   force =    -0.00024260    0.00000000    0.00020922
     atom    4 type  2   force =    -0.00011646   -0.00011646   -0.00000000
     atom    5 type  3   force =     0.00000000    0.00000000    0.00000000
     atom    6 type  2   force =     0.00000000   -0.00024260   -0.00020922
     atom    7 type  2   force =    -0.00024260    0.00000000   -0.00020922
     atom    8 type  2   force =     0.00055583    0.00055583   -0.00000000
     atom    9 type  2   force =     0.00000000    0.00000000    0.00000000
     atom   10 type  2   force =     0.00000000    0.00024260    0.00020922
     atom   11 type  2   force =     0.00017227    0.00000000    0.00065893
     atom   12 type  2   force =    -0.00011646    0.00011646    0.00000000
     atom   13 type  2   force =     0.00000000    0.00000000    0.00000000
     atom   14 type  2   force =     0.00000000    0.00024260   -0.00020922
     atom   15 type  2   force =     0.00017227    0.00000000   -0.00065893
     atom   16 type  2   force =     0.00055583   -0.00055583   -0.00000000
     atom   17 type  2   force =     0.00000000    0.00000000    0.00000000
     atom   18 type  2   force =     0.00000000    0.00017227    0.00065893
     atom   19 type  2   force =     0.00024260    0.00000000    0.00020922
     atom   20 type  2   force =     0.00011646   -0.00011646   -0.00000000
     atom   21 type  2   force =     0.00000000    0.00000000    0.00000000
     atom   22 type  2   force =     0.00000000    0.00017227   -0.00065893
     atom   23 type  2   force =     0.00024260    0.00000000   -0.00020922
     atom   24 type  2   force =    -0.00055583    0.00055583    0.00000000
     atom   25 type  2   force =     0.00000000    0.00000000    0.00000000
     atom   26 type  2   force =     0.00000000   -0.00017227    0.00065893
     atom   27 type  2   force =    -0.00017227    0.00000000    0.00065893
     atom   28 type  2   force =     0.00011646    0.00011646    0.00000000
     atom   29 type  2   force =     0.00000000    0.00000000    0.00000000
     atom   30 type  2   force =     0.00000000   -0.00017227   -0.00065893
     atom   31 type  2   force =    -0.00017227    0.00000000   -0.00065893
     atom   32 type  2   force =    -0.00055583   -0.00055583   -0.00000000

     Total force =     0.002667     Total SCF correction =     0.000012


     Computing stress (Cartesian axis) and pressure

          total   stress  (Ry/bohr**3)                   (kbar)     P=       -2.70
  -0.00002015   0.00000000   0.00000000           -2.96        0.00        0.00
   0.00000000  -0.00002015   0.00000000            0.00       -2.96        0.00
   0.00000000   0.00000000  -0.00001484            0.00        0.00       -2.18


     bfgs converged in   6 scf cycles and   5 bfgs steps
     (criteria: energy <  1.0E-04 Ry, force <  1.0E-03 Ry/Bohr)

     End of BFGS Geometry Optimization

     Final energy   =    -287.8701450805 Ry
Begin final coordinates

ATOMIC_POSITIONS (angstrom)
Mg            0.0000000000        0.0000000000        0.0000000000
Al            0.0000000000        2.0327660720        2.0528360713
Al            2.0327660720        0.0000000000        2.0528360713
Al            2.0434306596        2.0434306596        0.0000000000
Si            0.0000000000        0.0000000000        4.0500000000
Al            0.0000000000        2.0327660720        6.0471639287
Al            2.0327660720        0.0000000000        6.0471639287
Al            2.0186765896        2.0186765896        4.0500000000
Al            0.0000000000        4.0500000000        0.0000000000
Al            0.0000000000        6.0672339280        2.0528360713
Al            2.0267947853        4.0500000000        2.0271046411
Al            2.0434306596        6.0565693404        0.0000000000
Al            0.0000000000        4.0500000000        4.0500000000
Al            0.0000000000        6.0672339280        6.0471639287
Al            2.0267947853        4.0500000000        6.0728953589
Al            2.0186765896        6.0813234104        4.0500000000
Al            4.0500000000        0.0000000000        0.0000000000
Al            4.0500000000        2.0267947853        2.0271046411
Al            6.0672339280        0.0000000000        2.0528360713
Al            6.0565693404        2.0434306596        0.0000000000
Al            4.0500000000        0.0000000000        4.0500000000
Al            4.0500000000        2.0267947853        6.0728953589
Al            6.0672339280        0.0000000000        6.0471639287
Al            6.0813234104        2.0186765896        4.0500000000
Al            4.0500000000        4.0500000000        0.0000000000
Al            4.0500000000        6.0732052147        2.0271046411
Al            6.0732052147        4.0500000000        2.0271046411
Al            6.0565693404        6.0565693404       -0.0000000000
Al            4.0500000000        4.0500000000        4.0500000000
Al            4.0500000000        6.0732052147        6.0728953589
Al            6.0732052147        4.0500000000        6.0728953589
Al            6.0813234104        6.0813234104        4.0500000000
End final coordinates



     Writing output data file qe_tmp/Al30MgSi_2NN.save/
 
     init_run     :     11.75s CPU     13.59s WALL (       1 calls)
     electrons    :   1325.58s CPU   1366.80s WALL (       6 calls)
     update_pot   :      1.18s CPU      1.21s WALL (       5 calls)
     forces       :     18.29s CPU     19.12s WALL (       6 calls)
     stress       :    182.86s CPU    185.28s WALL (       6 calls)

     Called by init_run:
     wfcinit      :     11.01s CPU     12.11s WALL (       1 calls)
     potinit      :      0.11s CPU      0.13s WALL (       1 calls)
     hinit0       :      0.34s CPU      0.89s WALL (       1 calls)

     Called by electrons:
     c_bands      :   1155.98s CPU   1184.56s WALL (      62 calls)
     sum_band     :    155.01s CPU    162.18s WALL (      62 calls)
     v_of_rho     :      3.20s CPU      3.38s WALL (      65 calls)
     newd         :     12.00s CPU     17.17s WALL (      65 calls)
     mix_rho      :      0.47s CPU      0.63s WALL (      62 calls)

     Called by c_bands:
     init_us_2    :     22.99s CPU     23.36s WALL (   10275 calls)
     cegterg      :   1056.21s CPU   1080.68s WALL (    4650 calls)

     Called by sum_band:
     sum_band:bec :      0.46s CPU      0.46s WALL (    4650 calls)
     addusdens    :     14.25s CPU     19.11s WALL (      62 calls)

     Called by *egterg:
     h_psi        :    683.70s CPU    695.74s WALL (   21005 calls)
     s_psi        :     79.68s CPU     79.95s WALL (   21005 calls)
     g_psi        :      3.84s CPU      3.87s WALL (   16280 calls)
     cdiaghg      :    124.58s CPU    135.86s WALL (   20330 calls)

     Called by h_psi:
     h_psi:calbec :     71.26s CPU     72.62s WALL (   21005 calls)
     vloc_psi     :    526.51s CPU    536.72s WALL (   21005 calls)
     add_vuspsi   :     81.38s CPU     81.72s WALL (   21005 calls)

     General routines
     calbec       :    120.45s CPU    123.08s WALL (   27905 calls)
     fft          :      2.47s CPU      3.14s WALL (     991 calls)
     ffts         :      0.08s CPU      0.10s WALL (     127 calls)
     fftw         :    544.52s CPU    554.77s WALL ( 1928708 calls)
     interpolate  :      0.20s CPU      0.23s WALL (      65 calls)
 
     Parallel routines
     fft_scatt_xy :     77.85s CPU     79.45s WALL ( 1929826 calls)
     fft_scatt_yz :    184.20s CPU    188.51s WALL ( 1929826 calls)
 
     PWSCF        :  25m42.56s CPU  26m31.89s WALL

 
   This run was terminated on:  10:34:58  22Jul2026            

=------------------------------------------------------------------------------=
   JOB DONE.
=------------------------------------------------------------------------------=
