
     Program PWSCF v.6.7MaX starts on 14Jul2026 at 10:35: 2 

     This program is part of the open-source Quantum ESPRESSO suite
     for quantum simulation of materials; please cite
         "P. Giannozzi et al., J. Phys.:Condens. Matter 21 395502 (2009);
         "P. Giannozzi et al., J. Phys.:Condens. Matter 29 465901 (2017);
          URL http://www.quantum-espresso.org", 
     in publications or presentations arising from this work. More details at
     http://www.quantum-espresso.org/quote

     Parallel version (MPI), running on     1 processors

     MPI processes distributed on     1 nodes
     Waiting for input...
     Reading input from standard input
Warning: card &FCP ignored
Warning: card / ignored
Warning: card &RISM ignored
Warning: card / ignored

     Current dimensions of program PWSCF are:
     Max number of different atomic species (ntypx) = 10
     Max number of k-points (npk) =  40000
     Max angular momentum in pseudopotentials (lmaxx) =  3

     IMPORTANT: XC functional enforced from input :
     Exchange-correlation= PBE
                           (   1   4   3   4   0   0   0)
     Any further DFT definition will be discarded
     Please, verify this is what you really want


     Subspace diagonalization in iterative solution of the eigenvalue problem:
     a serial algorithm will be used

     Message from routine setup:
     using ibrav=0 with symmetry is DISCOURAGED, use correct ibrav instead

     G-vector sticks info
     --------------------
     sticks:   dense  smooth     PW     G-vecs:    dense   smooth      PW
     Sum         805     409    127                15089     5329     965



     bravais-lattice index     =            0
     lattice parameter (alat)  =       5.4118  a.u.
     unit-cell volume          =     112.0732 (a.u.)^3
     number of atoms/cell      =            1
     number of atomic types    =            1
     number of electrons       =         3.00
     number of Kohn-Sham states=            6
     kinetic-energy cutoff     =      50.0000  Ry
     charge density cutoff     =     400.0000  Ry
     scf convergence threshold =      1.0E-08
     mixing beta               =       0.7000
     number of iterations used =            8  plain     mixing
     energy convergence thresh.=      1.0E-04
     force convergence thresh. =      1.0E-03
     press convergence thresh. =      5.0E-01
     Exchange-correlation= PBE
                           (   1   4   3   4   0   0   0)
     nstep                     =           50


     celldm(1)=   5.411765  celldm(2)=   0.000000  celldm(3)=   0.000000
     celldm(4)=   0.000000  celldm(5)=   0.000000  celldm(6)=   0.000000

     crystal axes: (cart. coord. in units of alat)
               a(1) = (   0.000000   0.707107   0.707107 )  
               a(2) = (   0.707107   0.000000   0.707107 )  
               a(3) = (   0.707107   0.707107   0.000000 )  

     reciprocal axes: (cart. coord. in units 2 pi/alat)
               b(1) = ( -0.707107  0.707107  0.707107 )  
               b(2) = (  0.707107 -0.707107  0.707107 )  
               b(3) = (  0.707107  0.707107 -0.707107 )  


     PseudoPot. # 1 for Al read from file:
     ../../../pseudos/Al.us.pbe.z_3.ld1.psl.v1.0.0-low.upf
     MD5 check sum: ce85e4ab7f99e505e5d81ad4c7630c6b
     Pseudo is Ultrasoft + core correction, Zval =  3.0
     Generated using &quot;atomic&quot; code by A. Dal Corso  v.6.3MaX
     Using radial grid of 1135 points,  4 beta functions with: 
                l(1) =   0
                l(2) =   0
                l(3) =   1
                l(4) =   1
     Q(r) pseudized with 0 coefficients 


     atomic species   valence    mass     pseudopotential
        Al             3.00    26.98154     Al( 1.00)

     48 Sym. Ops., with inversion, found



   Cartesian axes

     site n.     atom                  positions (alat units)
         1           Al  tau(   1) = (   0.0000000   0.0000000   0.0000000  )

     number of k points=    29  Marzari-Vanderbilt smearing, width (Ry)=  0.0200
                       cart. coord. in units 2pi/alat
        k(    1) = (   0.0000000   0.0000000   0.0000000), wk =   0.0039062
        k(    2) = (   0.0883883   0.0883883  -0.0883883), wk =   0.0312500
        k(    3) = (   0.1767767   0.1767767  -0.1767767), wk =   0.0312500
        k(    4) = (   0.2651650   0.2651650  -0.2651650), wk =   0.0312500
        k(    5) = (  -0.3535534  -0.3535534   0.3535534), wk =   0.0156250
        k(    6) = (   0.1767767   0.0000000   0.0000000), wk =   0.0234375
        k(    7) = (   0.2651650   0.0883883  -0.0883883), wk =   0.0937500
        k(    8) = (   0.3535534   0.1767767  -0.1767767), wk =   0.0937500
        k(    9) = (  -0.2651650  -0.4419417   0.4419417), wk =   0.0937500
        k(   10) = (  -0.1767767  -0.3535534   0.3535534), wk =   0.0937500
        k(   11) = (  -0.0883883  -0.2651650   0.2651650), wk =   0.0937500
        k(   12) = (   0.0000000  -0.1767767   0.1767767), wk =   0.0468750
        k(   13) = (   0.3535534   0.0000000   0.0000000), wk =   0.0234375
        k(   14) = (   0.4419417   0.0883883  -0.0883883), wk =   0.0937500
        k(   15) = (  -0.1767767  -0.5303301   0.5303301), wk =   0.0937500
        k(   16) = (  -0.0883883  -0.4419417   0.4419417), wk =   0.0937500
        k(   17) = (   0.0000000  -0.3535534   0.3535534), wk =   0.0468750
        k(   18) = (   0.5303301   0.0000000   0.0000000), wk =   0.0234375
        k(   19) = (  -0.0883883  -0.6187184   0.6187184), wk =   0.0937500
        k(   20) = (   0.0000000  -0.5303301   0.5303301), wk =   0.0468750
        k(   21) = (  -0.7071068   0.0000000   0.0000000), wk =   0.0117188
        k(   22) = (   0.3535534   0.1767767   0.0000000), wk =   0.0937500
        k(   23) = (  -0.2651650  -0.4419417   0.6187184), wk =   0.1875000
        k(   24) = (  -0.1767767  -0.3535534   0.5303301), wk =   0.0937500
        k(   25) = (  -0.1767767  -0.5303301   0.7071068), wk =   0.0937500
        k(   26) = (  -0.0883883  -0.4419417   0.6187184), wk =   0.1875000
        k(   27) = (   0.0000000  -0.3535534   0.5303301), wk =   0.0937500
        k(   28) = (  -0.7071068   0.1767767   0.0000000), wk =   0.0468750
        k(   29) = (  -0.7071068   0.3535534   0.0000000), wk =   0.0234375

     Dense  grid:    15089 G-vectors     FFT dimensions: (  36,  36,  36)

     Smooth grid:     5329 G-vectors     FFT dimensions: (  25,  25,  25)

     Estimated max dynamical RAM per process >      23.75 MB

     Initial potential from superposition of free atoms

     starting charge    2.99771, renormalised to    3.00000
     Starting wfcs are    4 randomized atomic wfcs +    2 random wfcs

     total cpu time spent up to now is        3.9 secs

     Self-consistent Calculation

     iteration #  1     ecut=    50.00 Ry     beta= 0.70
     Davidson diagonalization with overlap
     ethr =  1.00E-02,  avg # of iterations =  5.9

     Threshold (ethr) on eigenvalues was too large:
     Diagonalizing with lowered threshold

     Davidson diagonalization with overlap
     ethr =  1.94E-04,  avg # of iterations =  3.2

     total cpu time spent up to now is        6.6 secs

     total energy              =      -5.03845741 Ry
     estimated scf accuracy    <       0.00567114 Ry

     iteration #  2     ecut=    50.00 Ry     beta= 0.70
     Davidson diagonalization with overlap
     ethr =  1.89E-04,  avg # of iterations =  1.3

     total cpu time spent up to now is        7.4 secs

     total energy              =      -5.03844643 Ry
     estimated scf accuracy    <       0.00040435 Ry

     iteration #  3     ecut=    50.00 Ry     beta= 0.70
     Davidson diagonalization with overlap
     ethr =  1.35E-05,  avg # of iterations =  2.4

     total cpu time spent up to now is        8.3 secs

     total energy              =      -5.03846489 Ry
     estimated scf accuracy    <       0.00000116 Ry

     iteration #  4     ecut=    50.00 Ry     beta= 0.70
     Davidson diagonalization with overlap
     ethr =  3.85E-08,  avg # of iterations =  3.3

     total cpu time spent up to now is        9.3 secs

     total energy              =      -5.03846663 Ry
     estimated scf accuracy    <       0.00000002 Ry

     iteration #  5     ecut=    50.00 Ry     beta= 0.70
     Davidson diagonalization with overlap
     ethr =  5.78E-10,  avg # of iterations =  2.3

     total cpu time spent up to now is       10.3 secs

     total energy              =      -5.03846664 Ry
     estimated scf accuracy    <       0.00000001 Ry

     iteration #  6     ecut=    50.00 Ry     beta= 0.70
     Davidson diagonalization with overlap
     ethr =  4.19E-10,  avg # of iterations =  1.3

     total cpu time spent up to now is       11.2 secs

     End of self-consistent calculation

          k = 0.0000 0.0000 0.0000 (   645 PWs)   bands (ev):

    -3.2535  20.4196  20.4196  21.8449  21.8449  21.8449

          k = 0.0884 0.0884-0.0884 (   661 PWs)   bands (ev):

    -2.8310  16.1236  19.4617  19.4617  22.4808  23.3909

          k = 0.1768 0.1768-0.1768 (   655 PWs)   bands (ev):

    -1.5709  11.2669  18.6943  18.6943  22.1286  22.5202

          k = 0.2652 0.2652-0.2652 (   664 PWs)   bands (ev):

     0.5055   6.9762  18.6019  18.6019  20.5429  20.5429

          k =-0.3536-0.3536 0.3536 (   652 PWs)   bands (ev):

     3.2674   3.4710  19.1678  19.1678  19.2691  19.2691

          k = 0.1768 0.0000 0.0000 (   665 PWs)   bands (ev):

    -2.6905  17.7056  17.7056  17.9736  20.6987  22.4161

          k = 0.2652 0.0884-0.0884 (   666 PWs)   bands (ev):

    -1.7104  13.1228  16.6429  18.1637  19.3883  21.9075

          k = 0.3536 0.1768-0.1768 (   656 PWs)   bands (ev):

     0.0923   8.6709  16.2952  17.0234  17.9973  23.9992

          k =-0.2652-0.4419 0.4419 (   668 PWs)   bands (ev):

     2.6850   4.8508  15.4003  16.6665  18.4348  22.4922

          k =-0.1768-0.3536 0.3536 (   667 PWs)   bands (ev):

     1.7367   6.0422  14.5211  17.7572  19.6144  21.6530

          k =-0.0884-0.2652 0.2652 (   660 PWs)   bands (ev):

    -0.5983  10.0686  14.4215  19.5469  21.4943  21.5029

          k = 0.0000-0.1768 0.1768 (   670 PWs)   bands (ev):

    -2.1296  14.2687  15.4951  21.5120  21.7931  23.1356

          k = 0.3536 0.0000 0.0000 (   649 PWs)   bands (ev):

    -1.0145  15.3123  15.3196  15.3196  16.0662  18.7741

          k = 0.4419 0.0884-0.0884 (   673 PWs)   bands (ev):

     0.5039  11.0532  13.4016  14.7226  16.1941  20.1906

          k =-0.1768-0.5303 0.5303 (   672 PWs)   bands (ev):

     2.8146   7.0876  11.4805  14.8489  16.5346  23.8513

          k =-0.0884-0.4419 0.4419 (   678 PWs)   bands (ev):

     3.7607   5.8701  10.3599  15.6986  17.5216  25.4014

          k = 0.0000-0.3536 0.3536 (   670 PWs)   bands (ev):

     1.1905   9.0794  10.5729  17.2713  19.2316  24.7492

          k = 0.5303 0.0000 0.0000 (   672 PWs)   bands (ev):

     1.7297  10.4168  13.6595  13.8798  13.8798  17.3491

          k =-0.0884-0.6187 0.6187 (   672 PWs)   bands (ev):

     3.7258   8.2114  10.0432  13.7618  15.1332  19.2557

          k = 0.0000-0.5303 0.5303 (   682 PWs)   bands (ev):

     5.9636   6.4898   7.4326  14.3672  16.0112  23.4378

          k =-0.7071 0.0000 0.0000 (   692 PWs)   bands (ev):

     4.9279   6.2424  13.1041  13.4001  13.4001  16.8408

          k = 0.3536 0.1768 0.0000 (   662 PWs)   bands (ev):

    -0.4601  11.6803  13.0687  16.5797  19.9353  21.6806

          k =-0.2652-0.4419 0.6187 (   669 PWs)   bands (ev):

     1.5991   7.9755  12.3981  14.4493  20.5520  22.6299

          k =-0.1768-0.3536 0.5303 (   676 PWs)   bands (ev):

     4.3113   4.5591  12.8000  13.2523  21.0694  21.5092

          k =-0.1768-0.5303 0.7071 (   666 PWs)   bands (ev):

     2.2733  10.1209  10.8313  11.7022  18.4473  20.4335

          k =-0.0884-0.4419 0.6187 (   673 PWs)   bands (ev):

     4.7896   6.9151   9.2905  11.4404  19.6227  23.7359

          k = 0.0000-0.3536 0.5303 (   678 PWs)   bands (ev):

     3.8910   7.5204   8.9802  12.5439  20.8317  24.0664

          k =-0.7071 0.1768 0.0000 (   674 PWs)   bands (ev):

     5.4455   6.7825   9.6005  11.0922  17.9400  19.9801

          k =-0.7071 0.3536 0.0000 (   684 PWs)   bands (ev):

     7.0012   7.0012   8.0211   8.9109  23.5949  24.1015

     the Fermi energy is     7.8015 ev

!    total energy              =      -5.03846664 Ry
     estimated scf accuracy    <          4.7E-10 Ry
     smearing contrib. (-TS)   =       0.00005946 Ry
     internal energy E=F+TS    =      -5.03852610 Ry

     The total energy is F=E-TS. E is the sum of the following terms:
     one-electron contribution =       2.93427399 Ry
     hartree contribution      =       0.00646964 Ry
     xc contribution           =      -2.58770412 Ry
     ewald contribution        =      -5.39156561 Ry

     convergence has been achieved in   6 iterations

     Forces acting on atoms (cartesian axes, Ry/au):

     atom    1 type  1   force =     0.00000000    0.00000000    0.00000000

     Total force =     0.000000     Total SCF correction =     0.000000


     Computing stress (Cartesian axis) and pressure

          total   stress  (Ry/bohr**3)                   (kbar)     P=       -4.87
  -0.00003310  -0.00000000  -0.00000000           -4.87       -0.00       -0.00
  -0.00000000  -0.00003310  -0.00000000           -0.00       -4.87       -0.00
  -0.00000000  -0.00000000  -0.00003310           -0.00       -0.00       -4.87


     BFGS Geometry Optimization
     Energy error            =      0.0E+00
     Gradient error          =      0.0E+00
     Cell gradient error     =      3.3E-05


     number of scf cycles    =   1
     number of bfgs steps    =   0

     enthalpy new            =      -5.0384666447 Ry

     new trust radius        =       0.0017520771 bohr
     new conv_thr            =       0.0000000100 Ry

     new unit-cell volume =    111.79518 a.u.^3 (    16.56634 Ang^3 )
     density =      2.70451 g/cm^3

CELL_PARAMETERS (angstrom)
  -0.000000000   2.023324296   2.023324296
   2.023324296  -0.000000000   2.023324296
   2.023324296   2.023324296  -0.000000000

ATOMIC_POSITIONS (angstrom)
Al            0.0000000000        0.0000000000        0.0000000000



     Writing output data file qe_tmp/ref_Al_fcc.save/
     NEW-OLD atomic charge density approx. for the potential
     extrapolated charge    2.99255, renormalised to    3.00000

     total cpu time spent up to now is       19.2 secs

     Self-consistent Calculation

     iteration #  1     ecut=    50.00 Ry     beta= 0.70
     Davidson diagonalization with overlap
     ethr =  1.00E-06,  avg # of iterations =  2.0

     Threshold (ethr) on eigenvalues was too large:
     Diagonalizing with lowered threshold

     Davidson diagonalization with overlap
     ethr =  2.76E-09,  avg # of iterations =  1.8

     total cpu time spent up to now is       21.2 secs

     total energy              =      -5.03847396 Ry
     estimated scf accuracy    <       0.00000007 Ry

     iteration #  2     ecut=    50.00 Ry     beta= 0.70
     Davidson diagonalization with overlap
     ethr =  2.42E-09,  avg # of iterations =  1.9

     total cpu time spent up to now is       22.0 secs

     End of self-consistent calculation

          k = 0.0000 0.0000 0.0000 (   645 PWs)   bands (ev):

    -3.2452  20.4588  20.4588  21.9024  21.9025  21.9025

          k = 0.0885 0.0885-0.0885 (   661 PWs)   bands (ev):

    -2.8220  16.1609  19.5049  19.5049  22.5316  23.4468

          k = 0.1769 0.1769-0.1769 (   655 PWs)   bands (ev):

    -1.5599  11.2974  18.7378  18.7378  22.1774  22.5692

          k = 0.2654 0.2654-0.2654 (   664 PWs)   bands (ev):

     0.5198   7.0005  18.6458  18.6458  20.5885  20.5885

          k =-0.3538-0.3538 0.3538 (   652 PWs)   bands (ev):

     3.2830   3.4931  19.2194  19.2194  19.3060  19.3060

          k = 0.1769 0.0000 0.0000 (   665 PWs)   bands (ev):

    -2.6812  17.7473  17.7473  18.0082  20.7549  22.4612

          k = 0.2654 0.0885-0.0885 (   666 PWs)   bands (ev):

    -1.6996  13.1557  16.6836  18.2035  19.4336  21.9586

          k = 0.3538 0.1769-0.1769 (   656 PWs)   bands (ev):

     0.1060   8.6976  16.3357  17.0622  18.0407  24.0502

          k =-0.2654-0.4423 0.4423 (   668 PWs)   bands (ev):

     2.7024   4.8721  15.4380  16.7076  18.4780  22.5408

          k =-0.1769-0.3538 0.3538 (   667 PWs)   bands (ev):

     1.7529   6.0651  14.5580  17.8000  19.6593  21.7000

          k =-0.0885-0.2654 0.2654 (   660 PWs)   bands (ev):

    -0.5857  10.0971  14.4586  19.5932  21.5416  21.5479

          k = 0.0000-0.1769 0.1769 (   670 PWs)   bands (ev):

    -2.1195  14.3017  15.5352  21.5531  21.8490  23.1831

          k = 0.3538 0.0000 0.0000 (   649 PWs)   bands (ev):

    -1.0026  15.3423  15.3588  15.3588  16.1038  18.8260

          k = 0.4423 0.0885-0.0885 (   673 PWs)   bands (ev):

     0.5182  11.0827  13.4358  14.7611  16.2323  20.2405

          k =-0.1769-0.5308 0.5308 (   672 PWs)   bands (ev):

     2.8323   7.1118  11.5124  14.8876  16.5743  23.9047

          k =-0.0885-0.4423 0.4423 (   678 PWs)   bands (ev):

     3.7796   5.8926  10.3907  15.7385  17.5631  25.4537

          k = 0.0000-0.3538 0.3538 (   670 PWs)   bands (ev):

     1.2058   9.1047  10.6059  17.3135  19.2758  24.7959

          k = 0.5308 0.0000 0.0000 (   672 PWs)   bands (ev):

     1.7458  10.4464  13.6867  13.9173  13.9173  17.3986

          k =-0.0885-0.6192 0.6192 (   672 PWs)   bands (ev):

     3.7447   8.2376  10.0721  13.7991  15.1693  19.3043

          k = 0.0000-0.5308 0.5308 (   682 PWs)   bands (ev):

     5.9845   6.5110   7.4625  14.4053  16.0499  23.4905

          k =-0.7077 0.0000 0.0000 (   692 PWs)   bands (ev):

     4.9473   6.2675  13.1304  13.4371  13.4371  16.8893

          k = 0.3538 0.1769 0.0000 (   662 PWs)   bands (ev):

    -0.4473  11.7094  13.1052  16.6203  19.9768  21.7340

          k =-0.2654-0.4423 0.6192 (   669 PWs)   bands (ev):

     1.6151   8.0009  12.4315  14.4874  20.5976  22.6793

          k =-0.1769-0.3538 0.5308 (   676 PWs)   bands (ev):

     4.3284   4.5826  12.8300  13.2925  21.1186  21.5544

          k =-0.1769-0.5308 0.7077 (   666 PWs)   bands (ev):

     2.2902  10.1476  10.8587  11.7414  18.4869  20.4852

          k =-0.0885-0.4423 0.6192 (   673 PWs)   bands (ev):

     4.8098   6.9387   9.3189  11.4751  19.6668  23.7896

          k = 0.0000-0.3538 0.5308 (   678 PWs)   bands (ev):

     3.9102   7.5434   9.0103  12.5794  20.8787  24.1147

          k =-0.7077 0.1769 0.0000 (   674 PWs)   bands (ev):

     5.4657   6.8080   9.6265  11.1280  17.9789  20.0311

          k =-0.7077 0.3538 0.0000 (   684 PWs)   bands (ev):

     7.0235   7.0235   8.0423   8.9500  23.6426  24.1585

     the Fermi energy is     7.8261 ev

!    total energy              =      -5.03847397 Ry
     estimated scf accuracy    <          3.3E-09 Ry
     smearing contrib. (-TS)   =       0.00006235 Ry
     internal energy E=F+TS    =      -5.03853633 Ry

     The total energy is F=E-TS. E is the sum of the following terms:
     one-electron contribution =       2.94004948 Ry
     hartree contribution      =       0.00648068 Ry
     xc contribution           =      -2.58903561 Ry
     ewald contribution        =      -5.39603087 Ry

     convergence has been achieved in   2 iterations

     Forces acting on atoms (cartesian axes, Ry/au):

     atom    1 type  1   force =     0.00000000    0.00000000    0.00000000

     Total force =     0.000000     Total SCF correction =     0.000000


     Computing stress (Cartesian axis) and pressure

          total   stress  (Ry/bohr**3)                   (kbar)     P=       -2.87
  -0.00001953  -0.00000000  -0.00000000           -2.87       -0.00       -0.00
  -0.00000000  -0.00001953  -0.00000000           -0.00       -2.87       -0.00
  -0.00000000  -0.00000000  -0.00001953           -0.00       -0.00       -2.87

     Energy error            =      7.3E-06
     Gradient error          =      0.0E+00
     Cell gradient error     =      2.0E-05


     number of scf cycles    =   2
     number of bfgs steps    =   1

     enthalpy old            =      -5.0384666447 Ry
     enthalpy new            =      -5.0384739723 Ry

     CASE: enthalpy_new < enthalpy_old

     new trust radius        =       0.0025092562 bohr
     new conv_thr            =            1.0E-10 Ry

     new unit-cell volume =    111.39769 a.u.^3 (    16.50743 Ang^3 )
     density =      2.71416 g/cm^3

CELL_PARAMETERS (angstrom)
  -0.000000000   2.020923424   2.020923424
   2.020923424  -0.000000000   2.020923424
   2.020923424   2.020923424  -0.000000000

ATOMIC_POSITIONS (angstrom)
Al            0.0000000000        0.0000000000        0.0000000000



     Writing output data file qe_tmp/ref_Al_fcc.save/
     NEW-OLD atomic charge density approx. for the potential
     extrapolated charge    2.98930, renormalised to    3.00000

     total cpu time spent up to now is       29.3 secs

     Self-consistent Calculation

     iteration #  1     ecut=    50.00 Ry     beta= 0.70
     Davidson diagonalization with overlap
     ethr =  1.00E-06,  avg # of iterations =  2.0

     Threshold (ethr) on eigenvalues was too large:
     Diagonalizing with lowered threshold

     Davidson diagonalization with overlap
     ethr =  5.45E-09,  avg # of iterations =  2.0

     total cpu time spent up to now is       30.3 secs

     total energy              =      -5.03847790 Ry
     estimated scf accuracy    <       0.00000014 Ry

     iteration #  2     ecut=    50.00 Ry     beta= 0.70
     Davidson diagonalization with overlap
     ethr =  4.71E-09,  avg # of iterations =  1.9

     total cpu time spent up to now is       30.9 secs

     total energy              =      -5.03847792 Ry
     estimated scf accuracy    <          6.7E-09 Ry

     iteration #  3     ecut=    50.00 Ry     beta= 0.70
     Davidson diagonalization with overlap
     ethr =  2.24E-10,  avg # of iterations =  1.4

     total cpu time spent up to now is       31.9 secs

     total energy              =      -5.03847792 Ry
     estimated scf accuracy    <          1.0E-10 Ry

     iteration #  4     ecut=    50.00 Ry     beta= 0.70
     Davidson diagonalization with overlap
     ethr =  3.36E-12,  avg # of iterations =  3.7

     total cpu time spent up to now is       33.2 secs

     End of self-consistent calculation

          k = 0.0000 0.0000 0.0000 (   645 PWs)   bands (ev):

    -3.2332  20.5153  20.5153  21.9850  21.9855  21.9855

          k = 0.0886 0.0886-0.0886 (   661 PWs)   bands (ev):

    -2.8090  16.2147  19.5670  19.5670  22.6048  23.5274

          k = 0.1771 0.1771-0.1771 (   655 PWs)   bands (ev):

    -1.5440  11.3413  18.8003  18.8003  22.2475  22.6400

          k = 0.2657 0.2657-0.2657 (   664 PWs)   bands (ev):

     0.5404   7.0355  18.7088  18.7088  20.6543  20.6543

          k =-0.3543-0.3543 0.3543 (   652 PWs)   bands (ev):

     3.3053   3.5249  19.2937  19.2937  19.3592  19.3592

          k = 0.1771 0.0000 0.0000 (   665 PWs)   bands (ev):

    -2.6679  17.8074  17.8074  18.0579  20.8358  22.5262

          k = 0.2657 0.0886-0.0886 (   666 PWs)   bands (ev):

    -1.6840  13.2029  16.7422  18.2606  19.4988  22.0322

          k = 0.3543 0.1771-0.1771 (   656 PWs)   bands (ev):

     0.1256   8.7360  16.3939  17.1180  18.1034  24.1235

          k =-0.2657-0.4428 0.4428 (   668 PWs)   bands (ev):

     2.7275   4.9028  15.4922  16.7667  18.5404  22.6108

          k =-0.1771-0.3543 0.3543 (   667 PWs)   bands (ev):

     1.7761   6.0981  14.6110  17.8616  19.7238  21.7676

          k =-0.0886-0.2657 0.2657 (   660 PWs)   bands (ev):

    -0.5676  10.1380  14.5120  19.6598  21.6098  21.6126

          k = 0.0000-0.1771 0.1771 (   670 PWs)   bands (ev):

    -2.1048  14.3493  15.5930  21.6123  21.9294  23.2516

          k = 0.3543 0.0000 0.0000 (   649 PWs)   bands (ev):

    -0.9854  15.3853  15.4151  15.4151  16.1576  18.9009

          k = 0.4428 0.0886-0.0886 (   673 PWs)   bands (ev):

     0.5388  11.1250  13.4850  14.8165  16.2873  20.3125

          k =-0.1771-0.5314 0.5314 (   672 PWs)   bands (ev):

     2.8578   7.1467  11.5584  14.9433  16.6316  23.9816

          k =-0.0886-0.4428 0.4428 (   678 PWs)   bands (ev):

     3.8069   5.9251  10.4351  15.7959  17.6229  25.5291

          k = 0.0000-0.3543 0.3543 (   670 PWs)   bands (ev):

     1.2279   9.1411  10.6534  17.3742  19.3394  24.8631

          k = 0.5314 0.0000 0.0000 (   672 PWs)   bands (ev):

     1.7691  10.4889  13.7257  13.9713  13.9713  17.4699

          k =-0.0886-0.6200 0.6200 (   672 PWs)   bands (ev):

     3.7719   8.2753  10.1137  13.8529  15.2214  19.3744

          k = 0.0000-0.5314 0.5314 (   682 PWs)   bands (ev):

     6.0145   6.5413   7.5056  14.4602  16.1056  23.5664

          k =-0.7085 0.0000 0.0000 (   692 PWs)   bands (ev):

     4.9753   6.3035  13.1680  13.4902  13.4902  16.9591

          k = 0.3543 0.1771 0.0000 (   662 PWs)   bands (ev):

    -0.4289  11.7513  13.1576  16.6787  20.0365  21.8109

          k =-0.2657-0.4428 0.6200 (   669 PWs)   bands (ev):

     1.6380   8.0374  12.4795  14.5423  20.6633  22.7506

          k =-0.1771-0.3543 0.5314 (   676 PWs)   bands (ev):

     4.3530   4.6164  12.8731  13.3503  21.1893  21.6195

          k =-0.1771-0.5314 0.7085 (   666 PWs)   bands (ev):

     2.3146  10.1861  10.8980  11.7979  18.5439  20.5597

          k =-0.0886-0.4428 0.6200 (   673 PWs)   bands (ev):

     4.8389   6.9726   9.3599  11.5252  19.7302  23.8670

          k = 0.0000-0.3543 0.5314 (   678 PWs)   bands (ev):

     3.9378   7.5766   9.0536  12.6304  20.9462  24.1841

          k =-0.7085 0.1771 0.0000 (   674 PWs)   bands (ev):

     5.4947   6.8446   9.6638  11.1797  18.0349  20.1046

          k =-0.7085 0.3543 0.0000 (   684 PWs)   bands (ev):

     7.0556   7.0556   8.0726   9.0063  23.7112  23.7113

     the Fermi energy is     7.8615 ev

!    total energy              =      -5.03847792 Ry
     estimated scf accuracy    <          2.7E-12 Ry
     smearing contrib. (-TS)   =       0.00006584 Ry
     internal energy E=F+TS    =      -5.03854376 Ry

     The total energy is F=E-TS. E is the sum of the following terms:
     one-electron contribution =       2.94834171 Ry
     hartree contribution      =       0.00649791 Ry
     xc contribution           =      -2.59094199 Ry
     ewald contribution        =      -5.40244140 Ry

     convergence has been achieved in   4 iterations

     Forces acting on atoms (cartesian axes, Ry/au):

     atom    1 type  1   force =     0.00000000    0.00000000    0.00000000

     Total force =     0.000000     Total SCF correction =     0.000000


     Computing stress (Cartesian axis) and pressure

          total   stress  (Ry/bohr**3)                   (kbar)     P=       -0.03
  -0.00000018  -0.00000000   0.00000000           -0.03       -0.00        0.00
  -0.00000000  -0.00000018   0.00000000           -0.00       -0.03        0.00
  -0.00000000   0.00000000  -0.00000018           -0.00        0.00       -0.03

     Energy error            =      4.0E-06
     Gradient error          =      0.0E+00
     Cell gradient error     =      1.8E-07


     bfgs converged in   3 scf cycles and   2 bfgs steps
     (criteria: energy <  1.0E-04 Ry, force <  1.0E-03Ry/Bohr, cell <  5.0E-01kbar)

     End of BFGS Geometry Optimization

     Final enthalpy =      -5.0384779237 Ry

     File qe_tmp/ref_Al_fcc.bfgs deleted, as requested
Begin final coordinates
     new unit-cell volume =    111.39769 a.u.^3 (    16.50743 Ang^3 )
     density =      2.71416 g/cm^3

CELL_PARAMETERS (angstrom)
  -0.000000000   2.020923424   2.020923424
   2.020923424  -0.000000000   2.020923424
   2.020923424   2.020923424  -0.000000000

ATOMIC_POSITIONS (angstrom)
Al            0.0000000000        0.0000000000        0.0000000000
End final coordinates



     Writing output data file qe_tmp/ref_Al_fcc.save/

     Final scf calculation at the relaxed structure.
     The G-vectors are recalculated for the final unit cell
     Results may differ from those at the preceding step.

     G-vector sticks info
     --------------------
     sticks:   dense  smooth     PW     G-vecs:    dense   smooth      PW
     Sum         805     397    127                15065     5209     965



     bravais-lattice index     =            0
     lattice parameter (alat)  =       5.4118  a.u.
     unit-cell volume          =     111.3977 (a.u.)^3
     number of atoms/cell      =            1
     number of atomic types    =            1
     number of electrons       =         3.00
     number of Kohn-Sham states=            6
     kinetic-energy cutoff     =      50.0000  Ry
     charge density cutoff     =     400.0000  Ry
     scf convergence threshold =      1.0E-10
     mixing beta               =       0.7000
     number of iterations used =            8  plain     mixing
     press convergence thresh. =      5.0E-01
     Exchange-correlation= PBE
                           (   1   4   3   4   0   0   0)

     celldm(1)=   5.411765  celldm(2)=   0.000000  celldm(3)=   0.000000
     celldm(4)=   0.000000  celldm(5)=   0.000000  celldm(6)=   0.000000

     crystal axes: (cart. coord. in units of alat)
               a(1) = (  -0.000000   0.705683   0.705683 )  
               a(2) = (   0.705683  -0.000000   0.705683 )  
               a(3) = (   0.705683   0.705683  -0.000000 )  

     reciprocal axes: (cart. coord. in units 2 pi/alat)
               b(1) = ( -0.708533  0.708533  0.708533 )  
               b(2) = (  0.708533 -0.708533  0.708533 )  
               b(3) = (  0.708533  0.708533 -0.708533 )  


     PseudoPot. # 1 for Al read from file:
     ../../../pseudos/Al.us.pbe.z_3.ld1.psl.v1.0.0-low.upf
     MD5 check sum: ce85e4ab7f99e505e5d81ad4c7630c6b
     Pseudo is Ultrasoft + core correction, Zval =  3.0
     Generated using &quot;atomic&quot; code by A. Dal Corso  v.6.3MaX
     Using radial grid of 1135 points,  4 beta functions with: 
                l(1) =   0
                l(2) =   0
                l(3) =   1
                l(4) =   1
     Q(r) pseudized with 0 coefficients 


     atomic species   valence    mass     pseudopotential
        Al             3.00    26.98154     Al( 1.00)

     48 Sym. Ops., with inversion, found



   Cartesian axes

     site n.     atom                  positions (alat units)
         1           Al  tau(   1) = (   0.0000000   0.0000000   0.0000000  )

     number of k points=    29  Marzari-Vanderbilt smearing, width (Ry)=  0.0200
                       cart. coord. in units 2pi/alat
        k(    1) = (   0.0000000   0.0000000   0.0000000), wk =   0.0039062
        k(    2) = (   0.0885666   0.0885666  -0.0885666), wk =   0.0312500
        k(    3) = (   0.1771333   0.1771333  -0.1771333), wk =   0.0312500
        k(    4) = (   0.2656999   0.2656999  -0.2656999), wk =   0.0312500
        k(    5) = (  -0.3542666  -0.3542666   0.3542666), wk =   0.0156250
        k(    6) = (   0.1771333   0.0000000   0.0000000), wk =   0.0234375
        k(    7) = (   0.2656999   0.0885666  -0.0885666), wk =   0.0937500
        k(    8) = (   0.3542666   0.1771333  -0.1771333), wk =   0.0937500
        k(    9) = (  -0.2656999  -0.4428332   0.4428332), wk =   0.0937500
        k(   10) = (  -0.1771333  -0.3542666   0.3542666), wk =   0.0937500
        k(   11) = (  -0.0885666  -0.2656999   0.2656999), wk =   0.0937500
        k(   12) = (   0.0000000  -0.1771333   0.1771333), wk =   0.0468750
        k(   13) = (   0.3542666   0.0000000   0.0000000), wk =   0.0234375
        k(   14) = (   0.4428332   0.0885666  -0.0885666), wk =   0.0937500
        k(   15) = (  -0.1771333  -0.5313999   0.5313999), wk =   0.0937500
        k(   16) = (  -0.0885666  -0.4428332   0.4428332), wk =   0.0937500
        k(   17) = (   0.0000000  -0.3542666   0.3542666), wk =   0.0468750
        k(   18) = (   0.5313999   0.0000000   0.0000000), wk =   0.0234375
        k(   19) = (  -0.0885666  -0.6199665   0.6199665), wk =   0.0937500
        k(   20) = (   0.0000000  -0.5313999   0.5313999), wk =   0.0468750
        k(   21) = (  -0.7085331   0.0000000   0.0000000), wk =   0.0117188
        k(   22) = (   0.3542666   0.1771333   0.0000000), wk =   0.0937500
        k(   23) = (  -0.2656999  -0.4428332   0.6199665), wk =   0.1875000
        k(   24) = (  -0.1771333  -0.3542666   0.5313999), wk =   0.0937500
        k(   25) = (  -0.1771333  -0.5313999   0.7085331), wk =   0.0937500
        k(   26) = (  -0.0885666  -0.4428332   0.6199665), wk =   0.1875000
        k(   27) = (   0.0000000  -0.3542666   0.5313999), wk =   0.0937500
        k(   28) = (  -0.7085331   0.1771333   0.0000000), wk =   0.0468750
        k(   29) = (  -0.7085331   0.3542666   0.0000000), wk =   0.0234375

     Dense  grid:    15065 G-vectors     FFT dimensions: (  36,  36,  36)

     Smooth grid:     5209 G-vectors     FFT dimensions: (  25,  25,  25)

     Estimated max dynamical RAM per process >      23.83 MB

     Initial potential from superposition of free atoms

     starting charge    2.99771, renormalised to    3.00000
     Starting wfcs are    4 randomized atomic wfcs +    2 random wfcs

     total cpu time spent up to now is       41.0 secs

     Self-consistent Calculation

     iteration #  1     ecut=    50.00 Ry     beta= 0.70
     Davidson diagonalization with overlap
     c_bands:  1 eigenvalues not converged
     c_bands:  1 eigenvalues not converged
     c_bands:  1 eigenvalues not converged
     c_bands:  1 eigenvalues not converged
     c_bands:  2 eigenvalues not converged
     c_bands:  1 eigenvalues not converged
     c_bands:  1 eigenvalues not converged
     c_bands:  1 eigenvalues not converged
     c_bands:  1 eigenvalues not converged
     ethr =  1.00E-06,  avg # of iterations = 16.8

     total cpu time spent up to now is       42.6 secs

     total energy              =      -5.03849268 Ry
     estimated scf accuracy    <       0.00564853 Ry

     iteration #  2     ecut=    50.00 Ry     beta= 0.70
     Davidson diagonalization with overlap
     ethr =  1.88E-04,  avg # of iterations =  1.0

     total cpu time spent up to now is       43.0 secs

     total energy              =      -5.03845897 Ry
     estimated scf accuracy    <       0.00041138 Ry

     iteration #  3     ecut=    50.00 Ry     beta= 0.70
     Davidson diagonalization with overlap
     ethr =  1.37E-05,  avg # of iterations =  1.0

     total cpu time spent up to now is       43.4 secs

     total energy              =      -5.03847529 Ry
     estimated scf accuracy    <       0.00000162 Ry

     iteration #  4     ecut=    50.00 Ry     beta= 0.70
     Davidson diagonalization with overlap
     ethr =  5.40E-08,  avg # of iterations =  3.7

     total cpu time spent up to now is       43.8 secs

     total energy              =      -5.03847775 Ry
     estimated scf accuracy    <       0.00000015 Ry

     iteration #  5     ecut=    50.00 Ry     beta= 0.70
     Davidson diagonalization with overlap
     ethr =  5.12E-09,  avg # of iterations =  1.0

     total cpu time spent up to now is       44.2 secs

     total energy              =      -5.03847779 Ry
     estimated scf accuracy    <       0.00000008 Ry

     iteration #  6     ecut=    50.00 Ry     beta= 0.70
     Davidson diagonalization with overlap
     ethr =  2.50E-09,  avg # of iterations =  1.3

     total cpu time spent up to now is       44.6 secs

     total energy              =      -5.03847779 Ry
     estimated scf accuracy    <          1.9E-09 Ry

     iteration #  7     ecut=    50.00 Ry     beta= 0.70
     Davidson diagonalization with overlap
     ethr =  6.25E-11,  avg # of iterations =  2.4

     total cpu time spent up to now is       45.1 secs

     End of self-consistent calculation

          k = 0.0000 0.0000 0.0000 (   645 PWs)   bands (ev):

    -3.2332  20.5153  20.5153  21.9854  21.9855  21.9855

          k = 0.0886 0.0886-0.0886 (   655 PWs)   bands (ev):

    -2.8090  16.2147  19.5670  19.5670  22.6048  23.5274

          k = 0.1771 0.1771-0.1771 (   655 PWs)   bands (ev):

    -1.5440  11.3413  18.8003  18.8003  22.2475  22.6400

          k = 0.2657 0.2657-0.2657 (   658 PWs)   bands (ev):

     0.5404   7.0355  18.7088  18.7088  20.6543  20.6543

          k =-0.3543-0.3543 0.3543 (   652 PWs)   bands (ev):

     3.3053   3.5249  19.2937  19.2937  19.3592  19.3592

          k = 0.1771 0.0000 0.0000 (   665 PWs)   bands (ev):

    -2.6679  17.8074  17.8074  18.0579  20.8358  22.5261

          k = 0.2657 0.0886-0.0886 (   662 PWs)   bands (ev):

    -1.6840  13.2029  16.7422  18.2606  19.4988  22.0322

          k = 0.3543 0.1771-0.1771 (   656 PWs)   bands (ev):

     0.1256   8.7360  16.3939  17.1180  18.1034  24.1236

          k =-0.2657-0.4428 0.4428 (   663 PWs)   bands (ev):

     2.7275   4.9028  15.4922  16.7667  18.5404  22.6108

          k =-0.1771-0.3543 0.3543 (   663 PWs)   bands (ev):

     1.7761   6.0981  14.6110  17.8616  19.7238  21.7676

          k =-0.0886-0.2657 0.2657 (   652 PWs)   bands (ev):

    -0.5676  10.1381  14.5120  19.6598  21.6098  21.6126

          k = 0.0000-0.1771 0.1771 (   658 PWs)   bands (ev):

    -2.1048  14.3493  15.5930  21.6123  21.9295  23.2516

          k = 0.3543 0.0000 0.0000 (   649 PWs)   bands (ev):

    -0.9854  15.3853  15.4151  15.4151  16.1576  18.9009

          k = 0.4428 0.0886-0.0886 (   664 PWs)   bands (ev):

     0.5388  11.1250  13.4850  14.8165  16.2873  20.3125

          k =-0.1771-0.5314 0.5314 (   672 PWs)   bands (ev):

     2.8578   7.1467  11.5584  14.9433  16.6316  23.9816

          k =-0.0886-0.4428 0.4428 (   676 PWs)   bands (ev):

     3.8069   5.9251  10.4351  15.7959  17.6229  25.5291

          k = 0.0000-0.3543 0.3543 (   670 PWs)   bands (ev):

     1.2279   9.1411  10.6534  17.3742  19.3394  24.8632

          k = 0.5314 0.0000 0.0000 (   664 PWs)   bands (ev):

     1.7691  10.4889  13.7257  13.9713  13.9713  17.4698

          k =-0.0886-0.6200 0.6200 (   668 PWs)   bands (ev):

     3.7719   8.2753  10.1137  13.8529  15.2214  19.3744

          k = 0.0000-0.5314 0.5314 (   670 PWs)   bands (ev):

     6.0145   6.5413   7.5056  14.4602  16.1056  23.5664

          k =-0.7085 0.0000 0.0000 (   652 PWs)   bands (ev):

     4.9753   6.3035  13.1680  13.4902  13.4902  16.9592

          k = 0.3543 0.1771 0.0000 (   662 PWs)   bands (ev):

    -0.4289  11.7513  13.1576  16.6787  20.0365  21.8109

          k =-0.2657-0.4428 0.6200 (   664 PWs)   bands (ev):

     1.6380   8.0374  12.4795  14.5423  20.6633  22.7505

          k =-0.1771-0.3543 0.5314 (   676 PWs)   bands (ev):

     4.3531   4.6164  12.8731  13.3503  21.1893  21.6195

          k =-0.1771-0.5314 0.7085 (   666 PWs)   bands (ev):

     2.3146  10.1861  10.8980  11.7979  18.5439  20.5597

          k =-0.0886-0.4428 0.6200 (   669 PWs)   bands (ev):

     4.8389   6.9726   9.3599  11.5252  19.7302  23.8670

          k = 0.0000-0.3543 0.5314 (   678 PWs)   bands (ev):

     3.9378   7.5766   9.0536  12.6304  20.9462  24.1842

          k =-0.7085 0.1771 0.0000 (   670 PWs)   bands (ev):

     5.4947   6.8446   9.6638  11.1796  18.0349  20.1046

          k =-0.7085 0.3543 0.0000 (   684 PWs)   bands (ev):

     7.0556   7.0556   8.0726   9.0063  23.7112  23.7112

     the Fermi energy is     7.8615 ev

!    total energy              =      -5.03847780 Ry
     estimated scf accuracy    <          1.0E-10 Ry
     smearing contrib. (-TS)   =       0.00006584 Ry
     internal energy E=F+TS    =      -5.03854363 Ry

     The total energy is F=E-TS. E is the sum of the following terms:
     one-electron contribution =       2.94834163 Ry
     hartree contribution      =       0.00649792 Ry
     xc contribution           =      -2.59094179 Ry
     ewald contribution        =      -5.40244140 Ry

     convergence has been achieved in   7 iterations

     Forces acting on atoms (cartesian axes, Ry/au):

     atom    1 type  1   force =     0.00000000    0.00000000    0.00000000

     Total force =     0.000000     Total SCF correction =     0.000000


     Computing stress (Cartesian axis) and pressure

          total   stress  (Ry/bohr**3)                   (kbar)     P=       -0.03
  -0.00000017   0.00000000  -0.00000000           -0.03        0.00       -0.00
   0.00000000  -0.00000017   0.00000000            0.00       -0.03        0.00
  -0.00000000   0.00000000  -0.00000017           -0.00        0.00       -0.03


     Writing output data file qe_tmp/ref_Al_fcc.save/

     init_run     :      5.70s CPU      5.72s WALL (       2 calls)
     electrons    :     14.84s CPU     18.16s WALL (       4 calls)
     update_pot   :      4.25s CPU      4.27s WALL (       2 calls)
     forces       :      5.99s CPU      6.02s WALL (       4 calls)
     stress       :     12.37s CPU     12.44s WALL (       4 calls)

     Called by init_run:
     wfcinit      :      0.25s CPU      0.26s WALL (       2 calls)
     potinit      :      1.34s CPU      1.35s WALL (       2 calls)
     hinit0       :      3.97s CPU      3.97s WALL (       2 calls)

     Called by electrons:
     c_bands      :     10.91s CPU     13.66s WALL (      22 calls)
     sum_band     :      2.25s CPU      2.33s WALL (      22 calls)
     v_of_rho     :      1.45s CPU      1.46s WALL (      23 calls)
     newd         :      0.35s CPU      0.36s WALL (      23 calls)
     mix_rho      :      0.11s CPU      0.11s WALL (      22 calls)

     Called by c_bands:
     init_us_2    :      0.44s CPU      0.46s WALL (    1566 calls)
     cegterg      :     10.07s CPU     10.34s WALL (     638 calls)

     Called by *egterg:
     cdiaghg      :      0.31s CPU      0.32s WALL (    2343 calls)
     h_psi        :      7.31s CPU      7.52s WALL (    2546 calls)
     s_psi        :      0.28s CPU      0.29s WALL (    2546 calls)
     g_psi        :      0.27s CPU      0.27s WALL (    1850 calls)

     Called by h_psi:
     h_psi:calbec :      0.31s CPU      0.32s WALL (    2546 calls)
     vloc_psi     :      6.59s CPU      6.79s WALL (    2546 calls)
     add_vuspsi   :      0.34s CPU      0.35s WALL (    2546 calls)

     General routines
     calbec       :      0.56s CPU      0.57s WALL (    3764 calls)
     fft          :      1.05s CPU      1.06s WALL (     396 calls)
     ffts         :      0.01s CPU      0.01s WALL (      45 calls)
     fftw         :      6.43s CPU      6.60s WALL (   26444 calls)
     interpolate  :      0.08s CPU      0.08s WALL (      23 calls)

     Parallel routines

     PWSCF        :     43.55s CPU     47.97s WALL


   This run was terminated on:  10:35:50  14Jul2026            

=------------------------------------------------------------------------------=
   JOB DONE.
=------------------------------------------------------------------------------=
