
     Program PWSCF v.6.7MaX starts on 14Jul2026 at 12:52:16 

     This program is part of the open-source Quantum ESPRESSO suite
     for quantum simulation of materials; please cite
         "P. Giannozzi et al., J. Phys.:Condens. Matter 21 395502 (2009);
         "P. Giannozzi et al., J. Phys.:Condens. Matter 29 465901 (2017);
          URL http://www.quantum-espresso.org", 
     in publications or presentations arising from this work. More details at
     http://www.quantum-espresso.org/quote

     Parallel version (MPI), running on     1 processors

     MPI processes distributed on     1 nodes
     Waiting for input...
     Reading input from standard input
Warning: card &CELL ignored
Warning: card    PRESS_CONV_THR   = 0.5 ignored
Warning: card / ignored
Warning: card &FCP ignored
Warning: card / ignored
Warning: card &RISM ignored
Warning: card / ignored

     Current dimensions of program PWSCF are:
     Max number of different atomic species (ntypx) = 10
     Max number of k-points (npk) =  40000
     Max angular momentum in pseudopotentials (lmaxx) =  3
     Message from routine read_pp_mesh:
     mesh size missing, using the one in header

     IMPORTANT: XC functional enforced from input :
     Exchange-correlation= PBE
                           (   1   4   3   4   0   0   0)
     Any further DFT definition will be discarded
     Please, verify this is what you really want


     Subspace diagonalization in iterative solution of the eigenvalue problem:
     a serial algorithm will be used

     Message from routine setup:
     using ibrav=0 with symmetry is DISCOURAGED, use correct ibrav instead

     G-vector sticks info
     --------------------
     sticks:   dense  smooth     PW     G-vecs:    dense   smooth      PW
     Sum        7441    3729   1033               484425   171189   24837



     bravais-lattice index     =            0
     lattice parameter (alat)  =      15.3068  a.u.
     unit-cell volume          =    3586.3416 (a.u.)^3
     number of atoms/cell      =           32
     number of atomic types    =            2
     number of electrons       =       103.00
     number of Kohn-Sham states=           62
     kinetic-energy cutoff     =      50.0000  Ry
     charge density cutoff     =     400.0000  Ry
     scf convergence threshold =      1.0E-08
     mixing beta               =       0.7000
     number of iterations used =            8  plain     mixing
     energy convergence thresh.=      1.0E-04
     force convergence thresh. =      1.0E-03
     Exchange-correlation= PBE
                           (   1   4   3   4   0   0   0)
     nstep                     =           50


     celldm(1)=  15.306782  celldm(2)=   0.000000  celldm(3)=   0.000000
     celldm(4)=   0.000000  celldm(5)=   0.000000  celldm(6)=   0.000000

     crystal axes: (cart. coord. in units of alat)
               a(1) = (   1.000000   0.000000   0.000000 )  
               a(2) = (   0.000000   1.000000   0.000000 )  
               a(3) = (   0.000000   0.000000   1.000000 )  

     reciprocal axes: (cart. coord. in units 2 pi/alat)
               b(1) = (  1.000000  0.000000  0.000000 )  
               b(2) = (  0.000000  1.000000  0.000000 )  
               b(3) = (  0.000000  0.000000  1.000000 )  


     PseudoPot. # 1 for Al read from file:
     ../../../pseudos/Al.us.pbe.z_3.ld1.psl.v1.0.0-low.upf
     MD5 check sum: ce85e4ab7f99e505e5d81ad4c7630c6b
     Pseudo is Ultrasoft + core correction, Zval =  3.0
     Generated using &quot;atomic&quot; code by A. Dal Corso  v.6.3MaX
     Using radial grid of 1135 points,  4 beta functions with: 
                l(1) =   0
                l(2) =   0
                l(3) =   1
                l(4) =   1
     Q(r) pseudized with 0 coefficients 


     PseudoPot. # 2 for Mg read from file:
     ../../../pseudos/Mg.us.pbe.z_10.uspp.gbrv.v1.4.upf
     MD5 check sum: 6ff864fbc24a44e5dee236984f6edeb4
     Pseudo is Ultrasoft, Zval = 10.0
     
     Using radial grid of  821 points,  7 beta functions with: 
                l(1) =   0
                l(2) =   0
                l(3) =   0
                l(4) =   1
                l(5) =   1
                l(6) =   2
                l(7) =   2
     Q(r) pseudized with 0 coefficients 


     atomic species   valence    mass     pseudopotential
        Al             3.00    26.98154     Al( 1.00)
        Mg            10.00    24.30500     Mg( 1.00)

     48 Sym. Ops., with inversion, found (44 have fractional translation)



   Cartesian axes

     site n.     atom                  positions (alat units)
         1           Al  tau(   1) = (   0.0000000   0.0000000   0.0000000  )
         2           Mg  tau(   2) = (   0.0000000   0.2500000   0.2500000  )
         3           Al  tau(   3) = (   0.2500000   0.0000000   0.2500000  )
         4           Al  tau(   4) = (   0.2500000   0.2500000   0.0000000  )
         5           Al  tau(   5) = (   0.0000000   0.0000000   0.5000000  )
         6           Al  tau(   6) = (   0.0000000   0.2500000   0.7500000  )
         7           Al  tau(   7) = (   0.2500000   0.0000000   0.7500000  )
         8           Al  tau(   8) = (   0.2500000   0.2500000   0.5000000  )
         9           Al  tau(   9) = (   0.0000000   0.5000000   0.0000000  )
        10           Al  tau(  10) = (   0.0000000   0.7500000   0.2500000  )
        11           Al  tau(  11) = (   0.2500000   0.5000000   0.2500000  )
        12           Al  tau(  12) = (   0.2500000   0.7500000   0.0000000  )
        13           Al  tau(  13) = (   0.0000000   0.5000000   0.5000000  )
        14           Al  tau(  14) = (   0.0000000   0.7500000   0.7500000  )
        15           Al  tau(  15) = (   0.2500000   0.5000000   0.7500000  )
        16           Al  tau(  16) = (   0.2500000   0.7500000   0.5000000  )
        17           Al  tau(  17) = (   0.5000000   0.0000000   0.0000000  )
        18           Al  tau(  18) = (   0.5000000   0.2500000   0.2500000  )
        19           Al  tau(  19) = (   0.7500000   0.0000000   0.2500000  )
        20           Al  tau(  20) = (   0.7500000   0.2500000   0.0000000  )
        21           Al  tau(  21) = (   0.5000000   0.0000000   0.5000000  )
        22           Al  tau(  22) = (   0.5000000   0.2500000   0.7500000  )
        23           Al  tau(  23) = (   0.7500000   0.0000000   0.7500000  )
        24           Al  tau(  24) = (   0.7500000   0.2500000   0.5000000  )
        25           Al  tau(  25) = (   0.5000000   0.5000000   0.0000000  )
        26           Al  tau(  26) = (   0.5000000   0.7500000   0.2500000  )
        27           Al  tau(  27) = (   0.7500000   0.5000000   0.2500000  )
        28           Al  tau(  28) = (   0.7500000   0.7500000   0.0000000  )
        29           Al  tau(  29) = (   0.5000000   0.5000000   0.5000000  )
        30           Al  tau(  30) = (   0.5000000   0.7500000   0.7500000  )
        31           Al  tau(  31) = (   0.7500000   0.5000000   0.7500000  )
        32           Al  tau(  32) = (   0.7500000   0.7500000   0.5000000  )

     number of k points=    35  Marzari-Vanderbilt smearing, width (Ry)=  0.0200
                       cart. coord. in units 2pi/alat
        k(    1) = (   0.0000000   0.0000000   0.0000000), wk =   0.0039062
        k(    2) = (   0.0000000   0.0000000   0.1250000), wk =   0.0234375
        k(    3) = (   0.0000000   0.0000000   0.2500000), wk =   0.0234375
        k(    4) = (   0.0000000   0.0000000   0.3750000), wk =   0.0234375
        k(    5) = (   0.0000000   0.0000000  -0.5000000), wk =   0.0117188
        k(    6) = (   0.0000000   0.1250000   0.1250000), wk =   0.0468750
        k(    7) = (   0.0000000   0.1250000   0.2500000), wk =   0.0937500
        k(    8) = (   0.0000000   0.1250000   0.3750000), wk =   0.0937500
        k(    9) = (   0.0000000   0.1250000  -0.5000000), wk =   0.0468750
        k(   10) = (   0.0000000   0.2500000   0.2500000), wk =   0.0468750
        k(   11) = (   0.0000000   0.2500000   0.3750000), wk =   0.0937500
        k(   12) = (   0.0000000   0.2500000  -0.5000000), wk =   0.0468750
        k(   13) = (   0.0000000   0.3750000   0.3750000), wk =   0.0468750
        k(   14) = (   0.0000000   0.3750000  -0.5000000), wk =   0.0468750
        k(   15) = (   0.0000000  -0.5000000  -0.5000000), wk =   0.0117188
        k(   16) = (   0.1250000   0.1250000   0.1250000), wk =   0.0312500
        k(   17) = (   0.1250000   0.1250000   0.2500000), wk =   0.0937500
        k(   18) = (   0.1250000   0.1250000   0.3750000), wk =   0.0937500
        k(   19) = (   0.1250000   0.1250000  -0.5000000), wk =   0.0468750
        k(   20) = (   0.1250000   0.2500000   0.2500000), wk =   0.0937500
        k(   21) = (   0.1250000   0.2500000   0.3750000), wk =   0.1875000
        k(   22) = (   0.1250000   0.2500000  -0.5000000), wk =   0.0937500
        k(   23) = (   0.1250000   0.3750000   0.3750000), wk =   0.0937500
        k(   24) = (   0.1250000   0.3750000  -0.5000000), wk =   0.0937500
        k(   25) = (   0.1250000  -0.5000000  -0.5000000), wk =   0.0234375
        k(   26) = (   0.2500000   0.2500000   0.2500000), wk =   0.0312500
        k(   27) = (   0.2500000   0.2500000   0.3750000), wk =   0.0937500
        k(   28) = (   0.2500000   0.2500000  -0.5000000), wk =   0.0468750
        k(   29) = (   0.2500000   0.3750000   0.3750000), wk =   0.0937500
        k(   30) = (   0.2500000   0.3750000  -0.5000000), wk =   0.0937500
        k(   31) = (   0.2500000  -0.5000000  -0.5000000), wk =   0.0234375
        k(   32) = (   0.3750000   0.3750000   0.3750000), wk =   0.0312500
        k(   33) = (   0.3750000   0.3750000  -0.5000000), wk =   0.0468750
        k(   34) = (   0.3750000  -0.5000000  -0.5000000), wk =   0.0234375
        k(   35) = (  -0.5000000  -0.5000000  -0.5000000), wk =   0.0039062

     Dense  grid:   484425 G-vectors     FFT dimensions: ( 100, 100, 100)

     Smooth grid:   171189 G-vectors     FFT dimensions: (  72,  72,  72)

     Estimated max dynamical RAM per process >       3.22 GB

     Initial potential from superposition of free atoms

     starting charge  102.62877, renormalised to  103.00000
     Starting wfcs are  129 randomized atomic wfcs

     total cpu time spent up to now is      400.7 secs

     Self-consistent Calculation

     iteration #  1     ecut=    50.00 Ry     beta= 0.70
     Davidson diagonalization with overlap
     ethr =  1.00E-02,  avg # of iterations =  3.6

     Threshold (ethr) on eigenvalues was too large:
     Diagonalizing with lowered threshold

     Davidson diagonalization with overlap
     ethr =  2.57E-04,  avg # of iterations =  5.5

     total cpu time spent up to now is     1771.7 secs

     total energy              =    -281.43404792 Ry
     estimated scf accuracy    <       0.29084429 Ry

     iteration #  2     ecut=    50.00 Ry     beta= 0.70
     Davidson diagonalization with overlap
     ethr =  2.82E-04,  avg # of iterations =  6.1

     total cpu time spent up to now is     2504.1 secs

     total energy              =    -281.27194607 Ry
     estimated scf accuracy    <       1.54720012 Ry

     iteration #  3     ecut=    50.00 Ry     beta= 0.70
     Davidson diagonalization with overlap
     ethr =  2.82E-04,  avg # of iterations =  4.8

     total cpu time spent up to now is     3203.8 secs

     total energy              =    -281.51157474 Ry
     estimated scf accuracy    <       0.06125038 Ry

     iteration #  4     ecut=    50.00 Ry     beta= 0.70
     Davidson diagonalization with overlap
     ethr =  5.95E-05,  avg # of iterations =  2.7

     total cpu time spent up to now is     3749.3 secs

     total energy              =    -281.51661291 Ry
     estimated scf accuracy    <       0.01325487 Ry

     iteration #  5     ecut=    50.00 Ry     beta= 0.70
     Davidson diagonalization with overlap
     c_bands:  1 eigenvalues not converged
     ethr =  1.29E-05,  avg # of iterations =  5.4

     total cpu time spent up to now is     4422.9 secs

     total energy              =    -281.51814181 Ry
     estimated scf accuracy    <       0.00187052 Ry

     iteration #  6     ecut=    50.00 Ry     beta= 0.70
     Davidson diagonalization with overlap
     c_bands:  1 eigenvalues not converged
     c_bands:  1 eigenvalues not converged
     c_bands:  1 eigenvalues not converged
     c_bands:  1 eigenvalues not converged
     c_bands:  1 eigenvalues not converged
     c_bands:  1 eigenvalues not converged
     c_bands:  3 eigenvalues not converged
     c_bands:  1 eigenvalues not converged
     c_bands:  1 eigenvalues not converged
     ethr =  1.82E-06,  avg # of iterations = 11.3

     total cpu time spent up to now is     5404.8 secs

     total energy              =    -281.51867344 Ry
     estimated scf accuracy    <       0.00006912 Ry

     iteration #  7     ecut=    50.00 Ry     beta= 0.70
     Davidson diagonalization with overlap
     c_bands:  2 eigenvalues not converged
     ethr =  6.71E-08,  avg # of iterations =  7.3

     total cpu time spent up to now is     6325.0 secs

     total energy              =    -281.51871171 Ry
     estimated scf accuracy    <       0.00002114 Ry

     iteration #  8     ecut=    50.00 Ry     beta= 0.70
     Davidson diagonalization with overlap
     c_bands:  1 eigenvalues not converged
     ethr =  2.05E-08,  avg # of iterations =  4.5

     total cpu time spent up to now is     6962.0 secs

     total energy              =    -281.51871642 Ry
     estimated scf accuracy    <       0.00000329 Ry

     iteration #  9     ecut=    50.00 Ry     beta= 0.70
     Davidson diagonalization with overlap
     ethr =  3.19E-09,  avg # of iterations =  4.9

     total cpu time spent up to now is     7574.0 secs

     total energy              =    -281.51871698 Ry
     estimated scf accuracy    <       0.00000025 Ry

     iteration # 10     ecut=    50.00 Ry     beta= 0.70
     Davidson diagonalization with overlap
     ethr =  2.42E-10,  avg # of iterations =  6.5

     total cpu time spent up to now is     8572.3 secs

     total energy              =    -281.51871714 Ry
     estimated scf accuracy    <       0.00000003 Ry

     iteration # 11     ecut=    50.00 Ry     beta= 0.70
     Davidson diagonalization with overlap
     ethr =  3.37E-11,  avg # of iterations =  4.6

     total cpu time spent up to now is     9282.7 secs

     End of self-consistent calculation

          k = 0.0000 0.0000 0.0000 ( 21367 PWs)   bands (ev):

   -67.8038 -34.5852 -34.5852 -34.5852  -3.1854  -1.0029  -1.0029  -0.9739
    -0.9739  -0.9739  -0.7349   1.2019   1.2019   1.2023   1.2023   1.2023
     1.2100   1.2100   1.2100   1.2997   1.2997   1.2997   1.7230   3.2836
     3.3593   3.3593   3.3593   3.4942   3.4942   3.4942   3.8426   5.0042
     5.0042   5.0042   6.2739   6.2739   6.4432   7.0117   7.0117   7.0117
     7.0135   7.0135   7.0135   7.0422   7.0422   7.0422   7.2260   7.2260
     7.2260   8.0341   8.0779   8.0779   8.1099   8.1099   8.1099   8.9267
     8.9267   8.9273   8.9273   8.9273   9.0926   9.1005

          k = 0.0000 0.0000 0.1250 ( 21419 PWs)   bands (ev):

   -67.8038 -34.5852 -34.5852 -34.5852  -3.1504  -1.4759  -0.9682  -0.9393
    -0.9393  -0.7980  -0.3394   0.6884   0.7150   0.7150   0.8582   1.2442
     1.2848   1.2848   1.3994   1.7818   1.8120   1.8120   2.0611   2.8713
     2.9173   2.9173   3.0541   3.9719   4.0014   4.0014   4.2167   4.4395
     5.0364   5.0364   6.3080   6.4053   6.4629   6.4760   6.4760   6.5874
     6.5874   6.6750   6.9667   7.0459   7.0746   7.1524   7.1524   7.6359
     7.6359   7.8367   7.8913   8.3413   8.3704   8.3704   8.4030   8.5823
     8.5914   8.5914   8.6044   8.6352   8.7651   8.7651

          k = 0.0000 0.0000 0.2500 ( 21418 PWs)   bands (ev):

   -67.8038 -34.5852 -34.5852 -34.5852  -3.0455  -1.9228  -0.8641  -0.8355
    -0.8355  -0.6955   0.2416   0.2701   0.2701   0.2816   0.4670   1.3468
     1.3869   1.3869   1.5052   2.4264   2.4351   2.4357   2.4357   2.4988
     2.4988   2.5162   2.7900   3.5497   4.6041   4.6323   4.6323   4.8243
     5.1326   5.1326   5.5946   5.6191   5.6191   5.8042   6.1688   6.1688
     6.4102   6.5249   7.1432   7.1715   7.2469   7.2469   7.4633   7.5133
     7.7340   7.7610   7.7610   7.9736   8.0336   8.1821   8.2007   8.2007
     8.2119   8.3392   8.3392   8.5656   8.6261   8.6261

          k = 0.0000 0.0000 0.3750 ( 21446 PWs)   bands (ev):

   -67.8038 -34.5852 -34.5852 -34.5852  -2.8721  -2.3031  -0.6908  -0.6632
    -0.6632  -0.5440  -0.1375  -0.1076  -0.1076   0.0935   1.0171   1.5174
     1.5553   1.5553   1.6582   2.0625   2.1079   2.1079   2.2479   2.6782
     3.1343   3.1626   3.1626   3.3937   4.7267   4.7508   4.7508   4.9505
     5.2631   5.2631   5.3024   5.3570   5.3570   5.5063   5.8202   5.8202
     6.5792   6.6800   6.8764   6.9041   6.9041   6.9896   7.1130   7.3055
     7.3331   7.3398   7.4036   7.4036   7.8249   7.8557   7.9624   7.9624
     8.7651   8.7760   8.7760   8.8996   8.9505   8.9505

          k = 0.0000 0.0000-0.5000 ( 21426 PWs)   bands (ev):

   -67.8038 -34.5852 -34.5852 -34.5852  -2.6731  -2.5713  -0.4518  -0.4487
    -0.4487  -0.4451  -0.4238  -0.3906  -0.3906  -0.0909   1.7454   1.7471
     1.7473   1.7491   1.7491   1.7654   1.8190   1.8469   1.8469   2.1712
     3.9024   3.9029   3.9169   3.9169   3.9417   3.9417   4.1027   4.1794
     5.4585   5.4585   5.5721   5.5721   6.0595   6.0639   6.0775   6.0775
     6.1185   6.1185   6.2304   6.2496   6.7937   6.8289   6.8363   7.0929
     7.5293   7.5319   7.5361   7.5361   7.5361   7.5919   7.7667   7.7667
     8.9907   8.9948   8.9948   9.0044   9.0332   9.0726

          k = 0.0000 0.1250 0.1250 ( 21407 PWs)   bands (ev):

   -67.8038 -34.5852 -34.5852 -34.5852  -3.1154  -1.4751  -1.4013  -0.9047
    -0.8480  -0.3654  -0.2646   0.2273   0.7268   0.7450   0.7748   0.8954
     1.3188   1.3597   1.8200   1.8423   1.8679   2.0099   2.3900   2.4270
     2.5314   3.3871   3.4233   3.5631   3.7297   4.4569   4.4834   4.5523
     4.6801   5.0689   5.9943   6.0675   6.3888   6.4342   6.4963   6.5633
     6.6063   6.6831   6.7217   6.9454   7.0238   7.0613   7.1016   7.6040
     7.7123   7.9598   8.0353   8.0937   8.1005   8.1293   8.2113   8.3248
     8.4153   8.4334   8.8133   8.8166   9.1416   9.1422

          k = 0.0000 0.1250 0.2500 ( 21406 PWs)   bands (ev):

   -67.8038 -34.5852 -34.5852 -34.5852  -3.0106  -1.8892  -1.3313  -0.8009
    -0.7475  -0.2420  -0.1938   0.3040   0.3107   0.3979   0.8547   0.8670
     0.9787   1.9272   1.9499   1.9655   1.9764   2.1070   2.4894   2.5908
     3.0295   3.0376   3.1741   3.5865   4.1201   4.2261   4.5747   5.1404
     5.1566   5.2077   5.2989   5.6115   5.6481   5.7315   6.1982   6.2202
     6.4949   6.6276   6.7291   6.7303   7.0922   7.2543   7.3224   7.4555
     7.6720   7.7166   7.7473   7.8085   7.8994   8.0609   8.0896   8.2158
     8.2759   8.3168   8.4448   8.8062   9.0256   9.1674

          k = 0.0000 0.1250 0.3750 ( 21434 PWs)   bands (ev):

   -67.8038 -34.5852 -34.5852 -34.5852  -2.8372  -2.2686  -1.1613  -0.6377
    -0.6286  -0.5384  -0.0841  -0.0733   0.0427   0.5254   1.0131   1.0247
     1.1420   1.5736   1.6713   2.1157   2.1865   2.6390   2.6597   2.6869
     2.8175   3.1965   3.2963   3.7990   4.2851   4.7073   4.7812   4.8184
     4.8625   4.9388   5.2711   5.3207   5.3686   5.8326   5.9002   5.9851
     6.3957   6.4798   6.6646   6.7884   6.8853   6.8863   7.1664   7.2626
     7.3124   7.4058   7.4527   7.4678   7.5497   7.8211   7.9218   8.3205
     8.4491   8.4804   8.9167   8.9653   9.3042   9.3734

          k = 0.0000 0.1250-0.5000 ( 21398 PWs)   bands (ev):

   -67.8038 -34.5852 -34.5852 -34.5852  -2.6380  -2.5368  -0.9629  -0.8719
    -0.4141  -0.4033  -0.3562  -0.2448   0.1431   0.2867   1.2364   1.2460
     1.2942   1.4293   1.8302   1.8648   2.3253   2.3367   2.3836   2.5696
     3.4483   3.4755   3.9500   3.9750   4.0328   4.0674   4.5363   4.5757
     4.8976   5.0123   5.4905   5.5426   5.5707   5.6565   5.6574   5.7139
     6.6318   6.6480   6.7112   6.7117   6.8492   6.9861   7.0061   7.0121
     7.0260   7.0468   7.2043   7.2680   7.4295   7.5847   8.0854   8.2224
     8.5049   8.6694   9.1505   9.2491   9.5422   9.5811

          k = 0.0000 0.2500 0.2500 ( 21408 PWs)   bands (ev):

   -67.8038 -34.5852 -34.5852 -34.5852  -2.9058  -1.8236  -1.7411  -0.7067
    -0.6973  -0.5988   0.3792   0.3834   0.4153   0.4155   0.4329   0.6327
     1.5028   1.5054   1.5227   1.6687   2.5660   2.5850   2.6131   2.7642
     3.5767   3.5827   3.6601   3.6916   3.6997   3.7692   4.0039   4.6878
     4.7899   5.2540   5.6457   5.6952   5.8188   5.8734   5.9168   5.9937
     6.2418   6.3584   6.6002   6.7662   6.7824   6.8091   6.8477   6.8962
     7.0393   7.3490   7.6966   7.8766   8.1287   8.2118   8.3184   8.4309
     8.8126   8.9257   8.9297   8.9778   9.0110   9.1087

          k = 0.0000 0.2500 0.3750 ( 21434 PWs)   bands (ev):

   -67.8038 -34.5852 -34.5852 -34.5852  -2.7326  -2.1662  -1.6076  -1.0474
    -0.5251  -0.4681   0.0293   0.0922   0.5802   0.5840   0.6699   1.1308
     1.1309   1.1413   1.3133   2.2564   2.7567   2.7599   2.8411   3.2754
     3.3177   3.3291   3.4547   3.8140   3.8762   4.3480   4.3866   4.3990
     4.5704   4.8777   4.9620   5.4155   5.9151   5.9377   5.9378   5.9900
     6.0058   6.1154   6.4303   6.4814   6.5338   6.5825   6.6036   6.8009
     7.0021   7.1754   7.7081   7.9480   8.0762   8.1641   8.3285   8.5051
     8.5301   8.8380   9.0117   9.1164   9.1652   9.3502

          k = 0.0000 0.2500-0.5000 ( 21376 PWs)   bands (ev):

   -67.8038 -34.5852 -34.5852 -34.5852  -2.5327  -2.4342  -1.4145  -1.3085
    -0.3104  -0.2997  -0.2535  -0.1403   0.7912   0.7913   0.8052   0.8515
     0.8609   1.0679   1.9314   1.9653   2.9662   2.9680   3.0129   3.0223
     3.0254   3.2093   4.0063   4.0489   4.0747   4.0916   4.1353   4.2118
     5.1236   5.1384   5.1503   5.1512   5.2665   5.3245   5.5882   5.7082
     6.1457   6.1510   6.1875   6.4077   6.6249   6.7725   6.9243   7.0139
     7.2588   7.2836   7.3463   7.4178   8.0753   8.1887   8.3298   8.4899
     8.4939   8.6412   8.7027   8.8274   9.7709   9.8401

          k = 0.0000 0.3750 0.3750 ( 21364 PWs)   bands (ev):

   -67.8038 -34.5852 -34.5852 -34.5852  -2.5595  -2.0331  -1.9499  -1.4218
    -0.3531  -0.3029   0.1769   0.1964   0.2267   0.3359   0.7556   0.8568
     1.2807   1.3859   1.8608   1.9238   2.9305   2.9577   3.4320   3.4399
     3.4632   3.4823   3.5431   3.6182   3.9096   3.9525   4.1104   4.2963
     4.9402   4.9911   5.1178   5.1767   5.2762   5.5616   5.5821   5.6140
     5.6289   5.8670   6.0473   6.1684   6.5977   6.6516   6.6632   6.8980
     7.2085   7.3035   7.5119   7.6845   8.1048   8.3610   8.7601   8.7620
     8.8714   8.8841   9.1636   9.2608   9.4724   9.7032

          k = 0.0000 0.3750-0.5000 ( 21380 PWs)   bands (ev):

   -67.8038 -34.5852 -34.5852 -34.5852  -2.3575  -2.2672  -1.7978  -1.6792
    -0.1377  -0.1272  -0.0837   0.0103   0.4136   0.4243   0.4773   0.6505
     1.5108   1.6304   2.0985   2.1344   2.6482   2.6684   3.1262   3.2621
     3.6656   3.6785   3.7203   3.8421   4.2098   4.2391   4.2894   4.3241
     4.7774   4.7902   4.8700   4.9173   5.2860   5.2899   5.3247   5.6027
     5.7500   5.8476   5.8598   5.8768   6.2684   6.4361   7.0102   7.0563
     7.5671   7.6126   7.7162   7.9158   7.9478   7.9670   8.0308   8.2030
     9.3852   9.4811   9.4993   9.5237   9.5683   9.6599

          k = 0.0000-0.5000-0.5000 ( 21392 PWs)   bands (ev):

   -67.8038 -34.5852 -34.5852 -34.5852  -2.1217  -2.1030  -2.1030  -1.9116
     0.0995   0.1009   0.1080   0.1080   0.1278   0.1278   0.2175   0.4704
     2.2821   2.2827   2.2827   2.2914   2.2954   2.4033   2.4033   2.5884
     4.3204   4.3257   4.3290   4.3290   4.3377   4.4378   4.4378   4.4560
     4.5675   4.5761   4.5812   4.5939   4.5939   4.6675   4.6675   5.1244
     5.9710   5.9825   5.9825   6.2472   6.5241   6.5466   6.6013   6.6013
     7.4465   7.4482   7.4482   7.8167   8.6900   8.7026   8.7026   8.7232
     8.7293   8.8184   8.8184   8.9151  10.1303  10.1396

          k = 0.1250 0.1250 0.1250 ( 21410 PWs)   bands (ev):

   -67.8038 -34.5852 -34.5852 -34.5852  -3.0804  -1.4403  -1.4403  -1.3167
    -0.3310  -0.3310  -0.2014   0.2214   0.2214   0.3771   1.3046   1.3083
     1.3083   1.3772   1.3772   1.5468   1.9400   2.4070   2.4070   2.5858
     2.9842   2.9842   3.0661   4.0663   4.0663   4.1933   4.4911   4.4911
     4.5393   5.1821   6.0056   6.0108   6.0108   6.0902   6.0902   6.1980
     6.9786   6.9786   7.0612   7.0741   7.0741   7.0844   7.1859   7.1859
     7.1961   7.6270   7.6270   7.7711   8.5182   8.5255   8.5255   8.5856
     8.5856   8.5891   8.6444   8.6651   8.6651   8.8133

          k = 0.1250 0.1250 0.2500 ( 21399 PWs)   bands (ev):

   -67.8038 -34.5852 -34.5852 -34.5852  -2.9756  -1.8555  -1.3360  -1.2489
    -0.2396  -0.2142  -0.2013  -0.0832   0.3323   0.4266   0.8731   0.9765
     1.4359   1.4547   1.5423   1.9656   2.0848   2.5217   2.5463   2.6320
     3.0494   3.1827   3.5238   3.6107   3.8047   4.5724   4.5939   4.7141
     4.8011   5.1457   5.2420   5.6397   5.6603   5.8081   6.0511   6.1552
     6.2944   6.3763   6.8109   7.0788   7.1561   7.1736   7.2015   7.2622
     7.3268   7.6768   7.7284   7.8271   7.8899   8.0998   8.1997   8.2355
     8.3218   8.3406   8.7495   8.7644   8.9390   9.2900

          k = 0.1250 0.1250 0.3750 ( 21424 PWs)   bands (ev):

   -67.8038 -34.5852 -34.5852 -34.5852  -2.8023  -2.2342  -1.1624  -1.0853
    -0.6069  -0.5114  -0.0546   0.0300   0.4965   0.5266   0.6240   1.0681
     1.1353   1.6231   1.6705   2.1750   2.2132   2.6764   2.6903   2.7265
     2.8339   3.2822   3.7521   3.8819   4.2730   4.3589   4.3888   4.7451
     4.7753   5.2671   5.2964   5.3310   5.4147   5.4387   5.4894   5.9516
     6.3183   6.3971   6.4969   6.8309   6.9326   6.9741   7.0507   7.2432
     7.3195   7.4083   7.4089   7.7389   7.8098   7.9320   7.9468   8.0992
     8.4897   8.5189   8.9203   8.9450   9.2900   9.4610

          k = 0.1250 0.1250-0.5000 ( 21386 PWs)   bands (ev):

   -67.8038 -34.5852 -34.5852 -34.5852  -2.6029  -2.5024  -0.9351  -0.9209
    -0.9029  -0.7411   0.1706   0.1843   0.2030   0.3808   0.7280   0.8644
     1.8140   1.8170   1.8181   1.8753   1.9143   2.0705   2.9045   3.0396
     3.4398   3.4532   3.5352   3.5888   4.5093   4.5186   4.6087   4.6587
     4.9278   4.9315   5.0032   5.0354   5.1219   5.2249   6.1434   6.1715
     6.2137   6.2404   6.5151   6.5232   6.5750   6.7650   7.2338   7.2352
     7.4451   7.4742   7.4922   7.5639   7.5655   7.6405   7.7318   7.7579
     9.0915   9.0918   9.1369   9.1742   9.1748   9.1988

          k = 0.1250 0.2500 0.2500 ( 21396 PWs)   bands (ev):

   -67.8038 -34.5852 -34.5852 -34.5852  -2.8709  -1.7887  -1.7093  -1.1860
    -0.6337  -0.1235  -0.1000  -0.0087   0.4264   0.5254   0.9756   1.0045
     1.1110   1.5565   1.6037   2.0680   2.1186   2.2066   3.1399   3.1859
     3.1900   3.2838   3.6899   3.7137   3.7669   4.2718   4.3718   4.6903
     4.7203   4.8192   5.2833   5.2996   5.3761   5.6923   5.8051   6.3187
     6.3467   6.3577   6.4336   6.4893   6.8077   6.9025   6.9102   7.2191
     7.3863   7.5081   7.7920   7.8922   8.1593   8.2238   8.2723   8.3973
     8.4907   8.5232   8.8735   8.9485   9.2255   9.2266

          k = 0.1250 0.2500 0.3750 ( 21425 PWs)   bands (ev):

   -67.8038 -34.5852 -34.5852 -34.5852  -2.6977  -2.1317  -1.5744  -1.0506
    -0.9756  -0.4528   0.0672   0.1189   0.6048   0.6290   0.7118   1.1523
     1.1733   1.2881   1.7633   2.2589   2.3169   2.7732   2.8190   2.9040
     3.3699   3.7812   3.8578   3.8904   3.8967   4.0753   4.3907   4.4463
     4.4709   4.8564   5.0167   5.3421   5.3813   5.5021   5.6398   5.8422
     6.0208   6.0545   6.1341   6.4897   6.5200   6.6130   7.0885   7.1151
     7.3907   7.4918   7.6322   8.0095   8.0559   8.3496   8.4636   8.5145
     8.5650   8.6888   8.9677   9.0485   9.1510   9.2503

          k = 0.1250 0.2500-0.5000 ( 21404 PWs)   bands (ev):

   -67.8038 -34.5852 -34.5852 -34.5852  -2.4977  -2.3998  -1.3797  -1.2790
    -0.8239  -0.7064   0.2765   0.2855   0.3428   0.4443   0.8292   0.9596
     1.3775   1.5104   1.9651   1.9996   2.4654   2.5981   3.0478   3.0730
     3.5347   3.5866   3.5979   3.7054   4.0425   4.1618   4.6255   4.6466
     4.7066   4.7482   5.0286   5.1421   5.1930   5.2373   5.6583   5.7224
     5.7516   5.8591   6.0980   6.2766   6.7069   6.8053   6.8421   6.8710
     7.5289   7.6048   7.8626   7.9084   8.1835   8.3122   8.3767   8.4376
     8.5115   8.6176   8.6687   8.9048   9.2966   9.3765

          k = 0.1250 0.3750 0.3750 ( 21399 PWs)   bands (ev):

   -67.8038 -34.5852 -34.5852 -34.5852  -2.5246  -1.9982  -1.9161  -1.3893
    -0.8429  -0.3304  -0.2332   0.2446   0.3017   0.7700   0.8657   1.3149
     1.3504   1.4488   1.8946   1.9592   2.9333   2.9750   2.9774   3.0583
     3.4631   3.5312   3.5317   3.6179   4.0130   4.1152   4.5549   4.5775
     4.6263   4.6995   5.0088   5.1067   5.1530   5.2133   5.4949   5.6148
     5.6558   5.7272   6.1324   6.1580   6.3037   6.7015   6.7327   6.7782
     7.4986   7.8169   8.0877   8.1971   8.2996   8.3230   8.4060   8.6425
     8.7297   8.7450   9.1931   9.2781   9.3684   9.3752

          k = 0.1250 0.3750-0.5000 ( 21438 PWs)   bands (ev):

   -67.8038 -34.5852 -34.5852 -34.5852  -2.3225  -2.2327  -1.7629  -1.6466
    -0.6508  -0.5491  -0.0975   0.0386   0.4526   0.5556   1.0016   1.1380
     1.5449   1.6666   2.1322   2.1681   2.6812   2.7002   3.1587   3.1731
     3.2793   3.3040   3.7531   3.7887   4.1685   4.1964   4.3915   4.5071
     4.6870   4.7339   4.9243   5.0356   5.1925   5.3106   5.3819   5.4340
     5.6800   5.7714   5.8458   5.9405   6.0029   6.0944   7.3590   7.3823
     7.4997   7.5292   7.8643   7.9899   8.3078   8.4579   8.5467   8.6675
     8.8648   8.9809   9.0430   9.0964   9.3734   9.4120

          k = 0.1250-0.5000-0.5000 ( 21408 PWs)   bands (ev):

   -67.8038 -34.5852 -34.5852 -34.5852  -2.0867  -2.0681  -2.0681  -1.8790
    -0.4174  -0.3995  -0.3995  -0.1772   0.6844   0.7017   0.7017   0.9299
     2.3160   2.3166   2.3166   2.3253   2.3293   2.4363   2.4363   2.6194
     3.9265   3.9277   3.9277   3.9350   3.9404   4.0592   4.0592   4.1953
     5.0264   5.0275   5.0275   5.0368   5.0383   5.1424   5.1424   5.4108
     5.4305   5.4305   5.4398   5.6929   6.6078   6.6713   6.6713   6.6881
     8.0165   8.0243   8.0243   8.2107   8.2170   8.2676   8.2676   8.4399
     9.2662   9.3149   9.3150   9.3852   9.6021   9.6026

          k = 0.2500 0.2500 0.2500 ( 21428 PWs)   bands (ev):

   -67.8038 -34.5852 -34.5852 -34.5852  -2.7662  -1.6841  -1.6841  -1.5581
    -0.5723  -0.5723  -0.4234   0.5293   0.5293   0.5680   0.6883   1.6110
     1.6146   1.6146   1.6818   1.6818   1.8812   2.7472   2.7472   2.8185
     3.7663   3.7663   3.8066   3.8066   3.8184   3.9774   4.8012   4.8050
     4.8050   4.8514   4.8514   4.9371   4.9371   4.9626   5.1068   5.9022
     5.9022   6.0937   6.9284   6.9393   6.9393   7.0451   7.0472   7.0472
     7.0953   7.9888   8.0022   8.0022   8.1070   8.1070   8.1535   8.2610
     8.2610   8.3775   9.3046   9.3103   9.3103   9.4131

          k = 0.2500 0.2500 0.3750 ( 21397 PWs)   bands (ev):

   -67.8038 -34.5852 -34.5852 -34.5852  -2.5932  -2.0291  -1.5101  -1.4282
    -0.9531  -0.8528  -0.3433   0.2154   0.7006   0.7787   1.2486   1.2711
     1.3768   1.8262   1.8707   2.3285   2.3740   2.3868   2.5111   2.9280
     3.4630   3.9264   3.9638   3.9659   3.9872   4.0576   4.4689   4.5028
     4.5099   4.5322   4.6711   4.9779   5.0452   5.1270   5.5382   5.6094
     5.6357   5.7575   6.0928   6.2177   7.1334   7.1362   7.1956   7.2588
     7.6243   7.6567   7.7310   7.7398   7.7636   8.3898   8.4598   8.6926
     8.7998   9.0023   9.0462   9.2805   9.2866   9.3513

          k = 0.2500 0.2500-0.5000 ( 21422 PWs)   bands (ev):

   -67.8038 -34.5852 -34.5852 -34.5852  -2.3925  -2.2971  -1.2825  -1.2680
    -1.2497  -1.0793  -0.1665  -0.0318   0.9254   0.9384   0.9562   1.1300
     2.0173   2.0201   2.0217   2.0769   2.1162   2.2719   3.1032   3.1171
     3.2018   3.2445   4.0962   4.1092   4.1386   4.1522   4.2402   4.2755
     4.3263   4.4943   5.1025   5.1071   5.1589   5.2696   5.3556   5.4081
     5.4115   5.6331   6.3409   6.3728   6.4124   6.4738   7.3289   7.3310
     7.4641   7.4852   8.2944   8.3106   8.3360   8.3628   8.4932   8.5074
     8.7496   8.7564   8.8492   8.9812   9.4262   9.4481

          k = 0.2500 0.3750 0.3750 ( 21425 PWs)   bands (ev):

   -67.8038 -34.5852 -34.5852 -34.5852  -2.4203  -1.8935  -1.8167  -1.3284
    -1.2524  -0.7800  -0.6703  -0.1536   0.9065   1.4066   1.4290   1.4426
     1.5689   1.9777   1.9958   2.1029   2.5057   2.6168   3.0322   3.0605
     3.1189   3.1765   3.5749   3.6808   4.1083   4.1459   4.1914   4.5239
     4.6033   4.6166   4.7332   4.7970   4.9192   5.1206   5.2376   5.2931
     5.4561   6.2750   6.3203   6.3454   6.7681   6.7955   6.8578   6.9585
     7.7855   7.8467   7.9071   7.9223   8.2692   8.3539   8.4255   8.4550
     8.7642   9.1352   9.2578   9.2743   9.3270   9.4516

          k = 0.2500 0.3750-0.5000 ( 21448 PWs)   bands (ev):

   -67.8038 -34.5852 -34.5852 -34.5852  -2.2175  -2.1300  -1.6583  -1.5520
    -1.1015  -0.9896  -0.5465  -0.3940   1.1029   1.1922   1.6442   1.6522
     1.7073   1.8266   2.2330   2.2694   2.7297   2.7753   2.7838   2.8879
     3.2573   3.3256   3.3265   3.4189   3.8620   3.8747   4.3078   4.3304
     4.3847   4.4959   4.8358   4.9015   5.0204   5.0437   5.4744   5.5226
     5.9683   5.9946   6.0520   6.1240   6.4721   6.6385   7.0652   7.1105
     7.5471   7.5836   8.0148   8.1420   8.5487   8.5851   8.6309   8.6698
     8.8469   8.9501   9.1065   9.1585   9.1745   9.1987

          k = 0.2500-0.5000-0.5000 ( 21452 PWs)   bands (ev):

   -67.8038 -34.5852 -34.5852 -34.5852  -1.9818  -1.9633  -1.9633  -1.7833
    -0.8676  -0.8493  -0.8493  -0.6061   1.3340   1.3506   1.3506   1.5528
     2.4176   2.4183   2.4183   2.4269   2.4309   2.5344   2.5344   2.7096
     3.4957   3.4965   3.4965   3.5048   3.5093   3.6333   3.6333   3.8036
     4.5315   4.5511   4.5511   4.8513   5.6516   5.6523   5.6523   5.6614
     5.6639   5.7644   5.7644   6.0181   6.7227   6.7815   6.7815   6.8235
     7.7886   7.8416   7.8416   7.8678   8.7537   8.7548   8.7548   8.7630
     8.7667   8.8637   8.8637   9.0737   9.0739   9.1416

          k = 0.3750 0.3750 0.3750 ( 21434 PWs)   bands (ev):

   -67.8038 -34.5852 -34.5852 -34.5852  -2.2475  -1.7192  -1.7192  -1.6082
    -1.1613  -1.1613  -0.9991  -0.5226   1.5869   1.5869   1.6903   2.1194
     2.1230   2.1230   2.1851   2.1851   2.3540   2.7115   2.7115   2.8044
     3.2371   3.2371   3.2887   3.7252   3.7292   3.7292   3.8102   3.8102
     3.9507   4.2713   4.2713   4.5535   5.3799   5.3799   5.5179   5.9291
     5.9291   6.0747   6.9268   6.9366   6.9366   7.0329   7.0329   7.0619
     7.4581   7.4705   7.4705   7.6001   7.6001   7.6729   8.5066   8.5066
     8.5774   9.0291   9.0291   9.1116   9.2456   9.8297

          k = 0.3750 0.3750-0.5000 ( 21392 PWs)   bands (ev):

   -67.8038 -34.5852 -34.5852 -34.5852  -2.0427  -1.9621  -1.4914  -1.4768
    -1.4583  -1.3007  -0.9276  -0.7539   1.8114   1.8229   1.8391   1.9699
     2.3550   2.3575   2.3603   2.4090   2.4491   2.5853   2.9007   2.9148
     2.9980   3.0496   3.4236   3.4243   3.4353   3.5146   3.5280   3.6452
     3.9567   3.9748   3.9989   4.3330   5.5929   5.7048   6.1211   6.1367
     6.2034   6.2709   6.6684   6.6919   6.7403   6.8013   7.1599   7.1617
     7.3007   7.3101   7.6963   7.7467   7.7469   7.7907   8.2132   8.2427
     8.3183   8.3679   8.7125   8.9137   9.8444   9.8456

          k = 0.3750-0.5000-0.5000 ( 21412 PWs)   bands (ev):

   -67.8038 -34.5852 -34.5852 -34.5852  -1.8072  -1.7890  -1.7890  -1.6370
    -1.2496  -1.2308  -1.2308  -0.9550   2.0475   2.0626   2.0626   2.2235
     2.5869   2.5876   2.5876   2.5961   2.6001   2.6920   2.6920   2.8414
     3.1267   3.1275   3.1275   3.1360   3.1403   3.2749   3.2749   3.4298
     3.6543   3.6775   3.6775   4.0795   6.3436   6.3442   6.3442   6.3530
     6.3561   6.4437   6.4437   6.6396   6.8920   6.9475   6.9475   7.0165
     7.4257   7.4794   7.4794   7.5131   7.9040   7.9048   7.9048   7.9140
     7.9167   8.0361   8.0361   8.3346  10.2480  10.2484

          k =-0.5000-0.5000-0.5000 ( 21368 PWs)   bands (ev):

   -67.8038 -34.5852 -34.5852 -34.5852  -1.5649  -1.5611  -1.5611  -1.5611
    -1.5279  -1.5279  -1.5279  -1.1319   2.8209   2.8209   2.8215   2.8215
     2.8215   2.8259   2.8259   2.8259   2.8263   2.8263   2.8263   2.8268
     2.8268   2.8268   2.8269   2.8411   2.8411   2.8411   2.8468   2.8468
     3.0903   3.0903   3.0903   3.6928   7.0957   7.0957   7.0957   7.0958
     7.0958   7.0958   7.0968   7.0968   7.0990   7.0990   7.0990   7.1049
     7.1062   7.1062   7.1062   7.1116   7.1116   7.1641   7.1641   7.1641
     7.4218   7.4218   7.4218   7.7555  11.2908  11.3081

     the Fermi energy is     7.8551 ev

!    total energy              =    -281.51871715 Ry
     estimated scf accuracy    <          2.7E-09 Ry
     smearing contrib. (-TS)   =      -0.00030567 Ry
     internal energy E=F+TS    =    -281.51841148 Ry

     The total energy is F=E-TS. E is the sum of the following terms:
     one-electron contribution =     -44.04124860 Ry
     hartree contribution      =      66.50453859 Ry
     xc contribution           =     -97.20821857 Ry
     ewald contribution        =    -206.77348290 Ry

     convergence has been achieved in  11 iterations

     Forces acting on atoms (cartesian axes, Ry/au):

     atom    1 type  1   force =     0.00000000   -0.00459049   -0.00459049
     atom    2 type  2   force =     0.00000000    0.00000000    0.00000000
     atom    3 type  1   force =     0.00459049   -0.00459049    0.00000000
     atom    4 type  1   force =     0.00459049   -0.00000000   -0.00459049
     atom    5 type  1   force =     0.00000000   -0.00459049    0.00459049
     atom    6 type  1   force =     0.00000000    0.00000000    0.00000000
     atom    7 type  1   force =     0.00014587   -0.00014587    0.00000000
     atom    8 type  1   force =     0.00459049    0.00000000    0.00459049
     atom    9 type  1   force =     0.00000000    0.00459049   -0.00459049
     atom   10 type  1   force =     0.00000000    0.00000000    0.00000000
     atom   11 type  1   force =     0.00459049    0.00459049    0.00000000
     atom   12 type  1   force =     0.00014587    0.00000000   -0.00014587
     atom   13 type  1   force =     0.00000000    0.00459049    0.00459049
     atom   14 type  1   force =     0.00000000    0.00000000    0.00000000
     atom   15 type  1   force =     0.00014587    0.00014587   -0.00000000
     atom   16 type  1   force =     0.00014587    0.00000000    0.00014587
     atom   17 type  1   force =     0.00000000   -0.00014587   -0.00014587
     atom   18 type  1   force =     0.00000000    0.00000000    0.00000000
     atom   19 type  1   force =    -0.00459049   -0.00459049    0.00000000
     atom   20 type  1   force =    -0.00459049   -0.00000000   -0.00459049
     atom   21 type  1   force =     0.00000000   -0.00014587    0.00014587
     atom   22 type  1   force =     0.00000000    0.00000000    0.00000000
     atom   23 type  1   force =    -0.00014587   -0.00014587    0.00000000
     atom   24 type  1   force =    -0.00459049    0.00000000    0.00459049
     atom   25 type  1   force =     0.00000000    0.00014587   -0.00014587
     atom   26 type  1   force =     0.00000000    0.00000000    0.00000000
     atom   27 type  1   force =    -0.00459049    0.00459049    0.00000000
     atom   28 type  1   force =    -0.00014587    0.00000000   -0.00014587
     atom   29 type  1   force =     0.00000000    0.00014587    0.00014587
     atom   30 type  1   force =     0.00000000    0.00000000    0.00000000
     atom   31 type  1   force =    -0.00014587    0.00014587   -0.00000000
     atom   32 type  1   force =    -0.00014587    0.00000000    0.00014587

     Total force =     0.022500     Total SCF correction =     0.000053


     Computing stress (Cartesian axis) and pressure

          total   stress  (Ry/bohr**3)                   (kbar)     P=        0.61
   0.00000417   0.00000000   0.00000000            0.61        0.00        0.00
   0.00000000   0.00000417   0.00000000            0.00        0.61        0.00
   0.00000000   0.00000000   0.00000417            0.00        0.00        0.61


     BFGS Geometry Optimization
     Energy error            =      0.0E+00
     Gradient error          =      4.6E-03

     number of scf cycles    =   1
     number of bfgs steps    =   0

     energy   new            =    -281.5187171472 Ry

     new trust radius        =       0.0064919280 bohr
     new conv_thr            =       0.0000000100 Ry


ATOMIC_POSITIONS (angstrom)
Al            0.0000000000       -0.0024291807       -0.0024291807
Mg            0.0000000000        2.0250000000        2.0250000000
Al            2.0274291807       -0.0024291807        2.0250000000
Al            2.0274291807        2.0250000000       -0.0024291807
Al            0.0000000000       -0.0024291807        4.0524291807
Al            0.0000000000        2.0250000000        6.0750000000
Al            2.0250771924       -0.0000771924        6.0750000000
Al            2.0274291807        2.0250000000        4.0524291807
Al            0.0000000000        4.0524291807       -0.0024291807
Al            0.0000000000        6.0750000000        2.0250000000
Al            2.0274291807        4.0524291807        2.0250000000
Al            2.0250771924        6.0750000000       -0.0000771924
Al            0.0000000000        4.0524291807        4.0524291807
Al            0.0000000000        6.0750000000        6.0750000000
Al            2.0250771924        4.0500771924        6.0750000000
Al            2.0250771924        6.0750000000        4.0500771924
Al            4.0500000000       -0.0000771924       -0.0000771924
Al            4.0500000000        2.0250000000        2.0250000000
Al            6.0725708193       -0.0024291807        2.0250000000
Al            6.0725708193        2.0250000000       -0.0024291807
Al            4.0500000000       -0.0000771924        4.0500771924
Al            4.0500000000        2.0250000000        6.0750000000
Al            6.0749228076       -0.0000771924        6.0750000000
Al            6.0725708193        2.0250000000        4.0524291807
Al            4.0500000000        4.0500771924       -0.0000771924
Al            4.0500000000        6.0750000000        2.0250000000
Al            6.0725708193        4.0524291807        2.0250000000
Al            6.0749228076        6.0750000000       -0.0000771924
Al            4.0500000000        4.0500771924        4.0500771924
Al            4.0500000000        6.0750000000        6.0750000000
Al            6.0749228076        4.0500771924        6.0750000000
Al            6.0749228076        6.0750000000        4.0500771924



     Writing output data file qe_tmp/Al31Mg.save/
     NEW-OLD atomic charge density approx. for the potential

     total cpu time spent up to now is     9670.6 secs

     Self-consistent Calculation

     iteration #  1     ecut=    50.00 Ry     beta= 0.70
     Davidson diagonalization with overlap
     ethr =  1.00E-06,  avg # of iterations =  2.5

     Threshold (ethr) on eigenvalues was too large:
     Diagonalizing with lowered threshold

     Davidson diagonalization with overlap
     ethr =  1.00E-08,  avg # of iterations =  8.7

     total cpu time spent up to now is    11409.6 secs

     total energy              =    -281.51914124 Ry
     estimated scf accuracy    <       0.00007313 Ry

     iteration #  2     ecut=    50.00 Ry     beta= 0.70
     Davidson diagonalization with overlap
     ethr =  7.10E-08,  avg # of iterations =  5.5

     total cpu time spent up to now is    12316.0 secs

     total energy              =    -281.51908646 Ry
     estimated scf accuracy    <       0.00081683 Ry

     iteration #  3     ecut=    50.00 Ry     beta= 0.70
     Davidson diagonalization with overlap
     ethr =  7.10E-08,  avg # of iterations =  5.2

     total cpu time spent up to now is    13253.5 secs

     total energy              =    -281.51918554 Ry
     estimated scf accuracy    <       0.00001878 Ry

     iteration #  4     ecut=    50.00 Ry     beta= 0.70
     Davidson diagonalization with overlap
     ethr =  1.82E-08,  avg # of iterations =  2.3

     total cpu time spent up to now is    13937.0 secs

     total energy              =    -281.51918906 Ry
     estimated scf accuracy    <       0.00000019 Ry

     iteration #  5     ecut=    50.00 Ry     beta= 0.70
     Davidson diagonalization with overlap
     ethr =  1.83E-10,  avg # of iterations =  8.8

     total cpu time spent up to now is    15167.7 secs

     total energy              =    -281.51918945 Ry
     estimated scf accuracy    <       0.00000026 Ry

     iteration #  6     ecut=    50.00 Ry     beta= 0.70
     Davidson diagonalization with overlap
     ethr =  1.83E-10,  avg # of iterations =  2.0

     total cpu time spent up to now is    15764.6 secs

     total energy              =    -281.51918946 Ry
     estimated scf accuracy    <       0.00000005 Ry

     iteration #  7     ecut=    50.00 Ry     beta= 0.70
     Davidson diagonalization with overlap
     ethr =  4.85E-11,  avg # of iterations =  4.4

     total cpu time spent up to now is    16459.5 secs

     End of self-consistent calculation

          k = 0.0000 0.0000 0.0000 ( 21367 PWs)   bands (ev):

   -67.8079 -34.5891 -34.5891 -34.5891  -3.1866  -1.0073  -1.0073  -0.9744
    -0.9744  -0.9744  -0.7284   1.1961   1.1961   1.1961   1.1992   1.1992
     1.2100   1.2100   1.2100   1.3051   1.3051   1.3051   1.7282   3.2837
     3.3594   3.3594   3.3594   3.4941   3.4941   3.4941   3.8459   5.0036
     5.0036   5.0036   6.2736   6.2736   6.4430   7.0067   7.0067   7.0067
     7.0100   7.0100   7.0100   7.0455   7.0455   7.0455   7.2305   7.2305
     7.2305   8.0231   8.0832   8.0832   8.1094   8.1094   8.1094   8.9253
     8.9253   8.9273   8.9273   8.9273   9.0873   9.0896

          k = 0.0000 0.0000 0.1250 ( 21419 PWs)   bands (ev):

   -67.8079 -34.5891 -34.5891 -34.5891  -3.1515  -1.4774  -0.9726  -0.9398
    -0.9398  -0.7960  -0.3384   0.6840   0.7143   0.7143   0.8607   1.2442
     1.2843   1.2843   1.3999   1.7774   1.8123   1.8123   2.0659   2.8713
     2.9174   2.9174   3.0553   3.9719   4.0014   4.0014   4.2188   4.4390
     5.0357   5.0357   6.3076   6.4053   6.4580   6.4747   6.4747   6.5877
     6.5877   6.6791   6.9664   7.0424   7.0779   7.1518   7.1518   7.6366
     7.6366   7.8360   7.8909   8.3370   8.3701   8.3701   8.4072   8.5801
     8.5903   8.5903   8.6008   8.6411   8.7666   8.7666

          k = 0.0000 0.0000 0.2500 ( 21418 PWs)   bands (ev):

   -67.8079 -34.5891 -34.5891 -34.5891  -3.0467  -1.9240  -0.8686  -0.8361
    -0.8361  -0.6931   0.2372   0.2696   0.2696   0.2817   0.4703   1.3467
     1.3864   1.3864   1.5052   2.4220   2.4351   2.4351   2.4351   2.4996
     2.4996   2.5186   2.7939   3.5491   4.6041   4.6323   4.6323   4.8262
     5.1319   5.1319   5.5898   5.6187   5.6187   5.8087   6.1686   6.1686
     6.4098   6.5245   7.1397   7.1748   7.2462   7.2462   7.4631   7.5130
     7.7337   7.7605   7.7605   7.9749   8.0335   8.1786   8.2007   8.2007
     8.2159   8.3407   8.3407   8.5618   8.6258   8.6258

          k = 0.0000 0.0000 0.3750 ( 21446 PWs)   bands (ev):

   -67.8079 -34.5891 -34.5891 -34.5891  -2.8735  -2.3039  -0.6953  -0.6638
    -0.6638  -0.5419  -0.1419  -0.1078  -0.1078   0.0975   1.0171   1.5173
     1.5545   1.5545   1.6573   2.0626   2.1083   2.1083   2.2503   2.6779
     3.1297   3.1626   3.1626   3.3981   4.7221   4.7506   4.7506   4.9549
     5.2625   5.2625   5.3023   5.3565   5.3565   5.5081   5.8201   5.8201
     6.5786   6.6800   6.8763   6.9037   6.9037   6.9900   7.1130   7.3019
     7.3362   7.3400   7.4024   7.4024   7.8214   7.8596   7.9640   7.9640
     8.7614   8.7761   8.7761   8.9017   8.9499   8.9499

          k = 0.0000 0.0000-0.5000 ( 21426 PWs)   bands (ev):

   -67.8079 -34.5891 -34.5891 -34.5891  -2.6761  -2.5704  -0.4591  -0.4516
    -0.4516  -0.4467  -0.4227  -0.3886  -0.3886  -0.0858   1.7424   1.7446
     1.7458   1.7458   1.7479   1.7679   1.8199   1.8498   1.8498   2.1735
     3.8970   3.8991   3.9180   3.9180   3.9403   3.9403   4.1079   4.1830
     5.4554   5.4554   5.5746   5.5746   6.0616   6.0616   6.0782   6.0782
     6.1170   6.1170   6.2329   6.2506   6.7899   6.8276   6.8397   7.0930
     7.5226   7.5324   7.5329   7.5329   7.5357   7.5985   7.7703   7.7703
     8.9845   8.9920   8.9920   9.0048   9.0328   9.0755

          k = 0.0000 0.1250 0.1250 ( 21407 PWs)   bands (ev):

   -67.8079 -34.5891 -34.5891 -34.5891  -3.1165  -1.4776  -1.4015  -0.9052
    -0.8491  -0.3679  -0.2621   0.2260   0.7236   0.7430   0.7772   0.8966
     1.3182   1.3598   1.8169   1.8414   1.8707   2.0096   2.3901   2.4282
     2.5330   3.3872   3.4234   3.5630   3.7313   4.4563   4.4827   4.5523
     4.6814   5.0682   5.9913   6.0688   6.3884   6.4335   6.4957   6.5594
     6.6075   6.6856   6.7211   6.9449   7.0248   7.0625   7.1007   7.6015
     7.7145   7.9581   8.0366   8.0906   8.0999   8.1283   8.2158   8.3274
     8.4168   8.4298   8.8131   8.8173   9.1384   9.1415

          k = 0.0000 0.1250 0.2500 ( 21406 PWs)   bands (ev):

   -67.8079 -34.5891 -34.5891 -34.5891  -3.0118  -1.8904  -1.3325  -0.8015
    -0.7485  -0.2427  -0.1948   0.3035   0.3103   0.3976   0.8546   0.8677
     0.9783   1.9268   1.9497   1.9656   1.9767   2.1065   2.4895   2.5907
     3.0296   3.0378   3.1760   3.5859   4.1201   4.2272   4.5741   5.1400
     5.1554   5.2073   5.2999   5.6118   5.6477   5.7307   6.1978   6.2212
     6.4945   6.6260   6.7286   6.7317   7.0919   7.2537   7.3225   7.4550
     7.6702   7.7174   7.7477   7.8100   7.8999   8.0609   8.0897   8.2156
     8.2765   8.3162   8.4450   8.8069   9.0234   9.1671

          k = 0.0000 0.1250 0.3750 ( 21434 PWs)   bands (ev):

   -67.8079 -34.5891 -34.5891 -34.5891  -2.8386  -2.2695  -1.1627  -0.6381
    -0.6293  -0.5401  -0.0843  -0.0735   0.0419   0.5262   1.0127   1.0243
     1.1415   1.5738   1.6727   2.1152   2.1859   2.6390   2.6599   2.6863
     2.8179   3.1965   3.2959   3.8003   4.2841   4.7065   4.7812   4.8181
     4.8622   4.9395   5.2710   5.3196   5.3695   5.8334   5.8993   5.9860
     6.3955   6.4805   6.6637   6.7868   6.8842   6.8870   7.1666   7.2619
     7.3108   7.4091   7.4542   7.4674   7.5497   7.8212   7.9208   8.3205
     8.4498   8.4798   8.9183   8.9657   9.3011   9.3725

          k = 0.0000 0.1250-0.5000 ( 21398 PWs)   bands (ev):

   -67.8079 -34.5891 -34.5891 -34.5891  -2.6410  -2.5360  -0.9660  -0.8708
    -0.4170  -0.4064  -0.3543  -0.2435   0.1402   0.2897   1.2335   1.2429
     1.2971   1.4331   1.8308   1.8639   2.3224   2.3337   2.3862   2.5728
     3.4487   3.4731   3.9512   3.9736   4.0336   4.0659   4.5383   4.5759
     4.8945   5.0148   5.4873   5.5437   5.5721   5.6560   5.6592   5.7132
     6.6332   6.6464   6.7119   6.7126   6.8473   6.9884   7.0026   7.0091
     7.0273   7.0442   7.2097   7.2710   7.4268   7.5859   8.0822   8.2255
     8.5021   8.6726   9.1521   9.2478   9.5385   9.5816

          k = 0.0000 0.2500 0.2500 ( 21408 PWs)   bands (ev):

   -67.8079 -34.5891 -34.5891 -34.5891  -2.9071  -1.8260  -1.7407  -0.7071
    -0.6979  -0.6003   0.3772   0.3802   0.4131   0.4166   0.4355   0.6342
     1.5027   1.5055   1.5223   1.6702   2.5628   2.5837   2.6158   2.7647
     3.5768   3.5828   3.6591   3.6921   3.6992   3.7692   4.0062   4.6852
     4.7916   5.2532   5.6453   5.6948   5.8187   5.8731   5.9177   5.9930
     6.2394   6.3604   6.6002   6.7679   6.7807   6.8059   6.8500   6.8955
     7.0416   7.3508   7.6953   7.8778   8.1282   8.2112   8.3158   8.4331
     8.8143   8.9233   8.9309   8.9772   9.0122   9.1098

          k = 0.0000 0.2500 0.3750 ( 21434 PWs)   bands (ev):

   -67.8079 -34.5891 -34.5891 -34.5891  -2.7340  -2.1672  -1.6087  -1.0476
    -0.5258  -0.4696   0.0289   0.0918   0.5801   0.5831   0.6694   1.1302
     1.1313   1.1423   1.3146   2.2564   2.7561   2.7603   2.8388   3.2748
     3.3186   3.3296   3.4554   3.8134   3.8749   4.3491   4.3866   4.3989
     4.5716   4.8775   4.9614   5.4144   5.9159   5.9375   5.9377   5.9884
     6.0053   6.1156   6.4309   6.4814   6.5328   6.5834   6.6057   6.7998
     7.0043   7.1752   7.7082   7.9476   8.0759   8.1654   8.3273   8.5066
     8.5290   8.8382   9.0115   9.1175   9.1653   9.3500

          k = 0.0000 0.2500-0.5000 ( 21376 PWs)   bands (ev):

   -67.8079 -34.5891 -34.5891 -34.5891  -2.5358  -2.4335  -1.4175  -1.3069
    -0.3133  -0.3028  -0.2517  -0.1390   0.7872   0.7884   0.8032   0.8546
     0.8641   1.0712   1.9320   1.9641   2.9632   2.9661   3.0131   3.0249
     3.0251   3.2104   4.0036   4.0501   4.0733   4.0941   4.1358   4.2105
     5.1248   5.1397   5.1490   5.1497   5.2687   5.3250   5.5851   5.7099
     6.1427   6.1480   6.1897   6.4116   6.6219   6.7773   6.9214   7.0154
     7.2602   7.2817   7.3483   7.4175   8.0727   8.1912   8.3311   8.4908
     8.4910   8.6425   8.6995   8.8302   9.7730   9.8380

          k = 0.0000 0.3750 0.3750 ( 21364 PWs)   bands (ev):

   -67.8079 -34.5891 -34.5891 -34.5891  -2.5611  -2.0356  -1.9495  -1.4217
    -0.3540  -0.3046   0.1738   0.1947   0.2291   0.3361   0.7562   0.8597
     1.2780   1.3866   1.8604   1.9246   2.9301   2.9570   3.4305   3.4367
     3.4607   3.4846   3.5456   3.6181   3.9100   3.9526   4.1104   4.2980
     4.9399   4.9906   5.1184   5.1766   5.2749   5.5624   5.5790   5.6136
     5.6299   5.8702   6.0449   6.1697   6.6000   6.6542   6.6617   6.8967
     7.2084   7.3047   7.5106   7.6839   8.1073   8.3619   8.7578   8.7637
     8.8719   8.8847   9.1608   9.2621   9.4713   9.7029

          k = 0.0000 0.3750-0.5000 ( 21380 PWs)   bands (ev):

   -67.8079 -34.5891 -34.5891 -34.5891  -2.3606  -2.2671  -1.8008  -1.6768
    -0.1406  -0.1304  -0.0824   0.0107   0.4107   0.4212   0.4809   0.6560
     1.5077   1.6319   2.0989   2.1332   2.6493   2.6672   3.1235   3.2650
     3.6626   3.6752   3.7225   3.8443   4.2108   4.2380   4.2897   4.3224
     4.7787   4.7887   4.8725   4.9171   5.2832   5.2870   5.3277   5.6062
     5.7469   5.8491   5.8600   5.8768   6.2653   6.4418   7.0079   7.0570
     7.5679   7.6121   7.7135   7.9194   7.9492   7.9651   8.0326   8.2034
     9.3820   9.4816   9.5007   9.5232   9.5697   9.6589

          k = 0.0000-0.5000-0.5000 ( 21392 PWs)   bands (ev):

   -67.8079 -34.5891 -34.5891 -34.5891  -2.1252  -2.1055  -2.1055  -1.9066
     0.0964   0.0968   0.1049   0.1049   0.1261   0.1261   0.2254   0.4778
     2.2778   2.2784   2.2784   2.2915   2.2942   2.4074   2.4074   2.5919
     4.3166   4.3259   4.3259   4.3263   4.3380   4.4352   4.4352   4.4603
     4.5628   4.5736   4.5809   4.5979   4.5979   4.6709   4.6709   5.1276
     5.9673   5.9801   5.9801   6.2557   6.5275   6.5477   6.5996   6.5996
     7.4431   7.4470   7.4470   7.8231   8.6952   8.7003   8.7003   8.7216
     8.7325   8.8188   8.8188   8.9130  10.1247  10.1372

          k = 0.1250 0.1250 0.1250 ( 21410 PWs)   bands (ev):

   -67.8079 -34.5891 -34.5891 -34.5891  -3.0816  -1.4428  -1.4428  -1.3146
    -0.3334  -0.3334  -0.1978   0.2189   0.2189   0.3807   1.2984   1.3069
     1.3069   1.3796   1.3796   1.5490   1.9409   2.4048   2.4048   2.5899
     2.9843   2.9843   3.0673   4.0663   4.0663   4.1947   4.4904   4.4904
     4.5388   5.1827   5.9996   6.0091   6.0091   6.0926   6.0926   6.2004
     6.9781   6.9781   7.0574   7.0732   7.0732   7.0857   7.1864   7.1864
     7.1983   7.6250   7.6250   7.7770   8.5122   8.5258   8.5258   8.5865
     8.5865   8.5917   8.6418   8.6649   8.6649   8.8134

          k = 0.1250 0.1250 0.2500 ( 21399 PWs)   bands (ev):

   -67.8079 -34.5891 -34.5891 -34.5891  -2.9768  -1.8568  -1.3385  -1.2479
    -0.2419  -0.2169  -0.1999  -0.0831   0.3323   0.4274   0.8706   0.9780
     1.4358   1.4542   1.5429   1.9634   2.0871   2.5213   2.5465   2.6322
     3.0473   3.1856   3.5239   3.6101   3.8057   4.5719   4.5932   4.7139
     4.8021   5.1430   5.2433   5.6394   5.6602   5.8086   6.0490   6.1573
     6.2919   6.3786   6.8104   7.0783   7.1559   7.1716   7.2025   7.2602
     7.3302   7.6771   7.7290   7.8265   7.8897   8.0994   8.1990   8.2362
     8.3215   8.3416   8.7483   8.7655   8.9390   9.2878

          k = 0.1250 0.1250 0.3750 ( 21424 PWs)   bands (ev):

   -67.8079 -34.5891 -34.5891 -34.5891  -2.8037  -2.2351  -1.1651  -1.0848
    -0.6092  -0.5098  -0.0572   0.0305   0.4942   0.5274   0.6249   1.0687
     1.1356   1.6224   1.6701   2.1754   2.2143   2.6742   2.6910   2.7269
     2.8334   3.2829   3.7499   3.8846   4.2705   4.3604   4.3897   4.7441
     4.7742   5.2674   5.2970   5.3291   5.4138   5.4408   5.4902   5.9517
     6.3159   6.3980   6.4974   6.8291   6.9373   6.9738   7.0514   7.2425
     7.3189   7.4068   7.4082   7.7388   7.8096   7.9340   7.9463   8.0991
     8.4900   8.5194   8.9186   8.9454   9.2895   9.4610

          k = 0.1250 0.1250-0.5000 ( 21386 PWs)   bands (ev):

   -67.8079 -34.5891 -34.5891 -34.5891  -2.6059  -2.5017  -0.9402  -0.9219
    -0.9028  -0.7379   0.1655   0.1834   0.2032   0.3847   0.7250   0.8677
     1.8112   1.8136   1.8189   1.8761   1.9173   2.0719   2.9015   3.0428
     3.4388   3.4495   3.5380   3.5890   4.5082   4.5151   4.6122   4.6604
     4.9246   4.9283   5.0055   5.0379   5.1238   5.2233   6.1441   6.1704
     6.2164   6.2398   6.5098   6.5224   6.5759   6.7709   7.2350   7.2351
     7.4415   7.4726   7.4954   7.5612   7.5621   7.6445   7.7334   7.7582
     9.0876   9.0904   9.1374   9.1754   9.1763   9.2005

          k = 0.1250 0.2500 0.2500 ( 21396 PWs)   bands (ev):

   -67.8079 -34.5891 -34.5891 -34.5891  -2.8722  -1.7912  -1.7091  -1.1865
    -0.6346  -0.1259  -0.1006  -0.0072   0.4238   0.5274   0.9730   1.0051
     1.1123   1.5561   1.6039   2.0659   2.1196   2.2085   3.1375   3.1871
     3.1902   3.2842   3.6893   3.7135   3.7673   4.2718   4.3734   4.6896
     4.7176   4.8205   5.2829   5.2995   5.3766   5.6902   5.8071   6.3172
     6.3469   6.3566   6.4342   6.4896   6.8089   6.9015   6.9135   7.2188
     7.3844   7.5102   7.7893   7.8946   8.1590   8.2239   8.2704   8.3985
     8.4892   8.5234   8.8737   8.9498   9.2243   9.2265

          k = 0.1250 0.2500 0.3750 ( 21425 PWs)   bands (ev):

   -67.8079 -34.5891 -34.5891 -34.5891  -2.6992  -2.1327  -1.5755  -1.0509
    -0.9766  -0.4530   0.0663   0.1184   0.6043   0.6296   0.7109   1.1518
     1.1735   1.2881   1.7643   2.2593   2.3154   2.7729   2.8191   2.9049
     3.3686   3.7816   3.8578   3.8895   3.8958   4.0756   4.3915   4.4461
     4.4716   4.8553   5.0173   5.3418   5.3809   5.5023   5.6381   5.8428
     6.0212   6.0553   6.1334   6.4922   6.5202   6.6123   7.0899   7.1155
     7.3897   7.4920   7.6323   8.0084   8.0557   8.3489   8.4636   8.5142
     8.5658   8.6888   8.9678   9.0498   9.1512   9.2501

          k = 0.1250 0.2500-0.5000 ( 21404 PWs)   bands (ev):

   -67.8079 -34.5891 -34.5891 -34.5891  -2.5007  -2.3992  -1.3828  -1.2775
    -0.8268  -0.7044   0.2727   0.2833   0.3456   0.4466   0.8263   0.9619
     1.3745   1.5139   1.9656   1.9985   2.4624   2.6010   3.0484   3.0712
     3.5322   3.5879   3.5985   3.7058   4.0395   4.1644   4.6264   4.6450
     4.7079   4.7470   5.0257   5.1444   5.1945   5.2364   5.6556   5.7235
     5.7531   5.8593   6.0951   6.2818   6.7038   6.8070   6.8422   6.8730
     7.5261   7.6064   7.8643   7.9076   8.1804   8.3154   8.3781   8.4369
     8.5087   8.6190   8.6658   8.9082   9.2982   9.3751

          k = 0.1250 0.3750 0.3750 ( 21399 PWs)   bands (ev):

   -67.8079 -34.5891 -34.5891 -34.5891  -2.5263  -2.0006  -1.9159  -1.3892
    -0.8441  -0.3328  -0.2316   0.2445   0.3021   0.7676   0.8669   1.3122
     1.3522   1.4492   1.8942   1.9601   2.9320   2.9735   2.9778   3.0583
     3.4616   3.5310   3.5337   3.6192   4.0106   4.1157   4.5556   4.5776
     4.6252   4.6999   5.0084   5.1050   5.1537   5.2155   5.4928   5.6163
     5.6553   5.7261   6.1353   6.1562   6.3064   6.7038   6.7315   6.7785
     7.4975   7.8175   8.0860   8.1973   8.3009   8.3219   8.4057   8.6396
     8.7312   8.7479   9.1933   9.2798   9.3679   9.3768

          k = 0.1250 0.3750-0.5000 ( 21438 PWs)   bands (ev):

   -67.8079 -34.5891 -34.5891 -34.5891  -2.3255  -2.2327  -1.7659  -1.6443
    -0.6538  -0.5482  -0.1005   0.0435   0.4495   0.5560   0.9986   1.1425
     1.5418   1.6681   2.1325   2.1670   2.6822   2.6990   3.1560   3.1698
     3.2820   3.3064   3.7539   3.7879   4.1669   4.1966   4.3918   4.5075
     4.6855   4.7350   4.9237   5.0373   5.1896   5.3105   5.3838   5.4328
     5.6777   5.7742   5.8428   5.9414   6.0059   6.0974   7.3592   7.3822
     7.5012   7.5279   7.8627   7.9896   8.3051   8.4614   8.5482   8.6680
     8.8616   8.9833   9.0447   9.0949   9.3739   9.4114

          k = 0.1250-0.5000-0.5000 ( 21408 PWs)   bands (ev):

   -67.8079 -34.5891 -34.5891 -34.5891  -2.0903  -2.0706  -2.0706  -1.8742
    -0.4210  -0.4018  -0.4018  -0.1691   0.6808   0.6992   0.6992   0.9373
     2.3117   2.3123   2.3123   2.3254   2.3281   2.4403   2.4403   2.6229
     3.9223   3.9232   3.9232   3.9353   3.9397   4.0641   4.0641   4.1996
     5.0219   5.0234   5.0234   5.0368   5.0369   5.1476   5.1476   5.4072
     5.4281   5.4281   5.4432   5.7008   6.6114   6.6701   6.6701   6.6886
     8.0128   8.0226   8.0226   8.2128   8.2212   8.2666   8.2666   8.4433
     9.2705   9.3141   9.3141   9.3830   9.5973   9.5975

          k = 0.2500 0.2500 0.2500 ( 21428 PWs)   bands (ev):

   -67.8079 -34.5891 -34.5891 -34.5891  -2.7676  -1.6866  -1.6866  -1.5559
    -0.5747  -0.5747  -0.4196   0.5268   0.5268   0.5700   0.6902   1.6048
     1.6132   1.6132   1.6842   1.6842   1.8838   2.7474   2.7474   2.8201
     3.7652   3.7652   3.8047   3.8047   3.8191   3.9797   4.7949   4.8035
     4.8035   4.8543   4.8543   4.9370   4.9370   4.9661   5.1071   5.9003
     5.9003   6.0997   6.9247   6.9382   6.9382   7.0472   7.0476   7.0476
     7.0976   7.9857   8.0015   8.0015   8.1083   8.1083   8.1591   8.2599
     8.2599   8.3760   9.3003   9.3100   9.3100   9.4138

          k = 0.2500 0.2500 0.3750 ( 21397 PWs)   bands (ev):

   -67.8079 -34.5891 -34.5891 -34.5891  -2.5947  -2.0303  -1.5127  -1.4275
    -0.9553  -0.8516  -0.3431   0.2169   0.6980   0.7787   1.2461   1.2709
     1.3784   1.8254   1.8704   2.3263   2.3751   2.3873   2.5136   2.9274
     3.4636   3.9245   3.9622   3.9662   3.9865   4.0577   4.4677   4.5018
     4.5105   4.5326   4.6731   4.9759   5.0472   5.1264   5.5364   5.6092
     5.6378   5.7612   6.0903   6.2201   7.1320   7.1371   7.1941   7.2583
     7.6236   7.6577   7.7319   7.7409   7.7650   8.3890   8.4588   8.6906
     8.8027   9.0017   9.0457   9.2804   9.2876   9.3505

          k = 0.2500 0.2500-0.5000 ( 21422 PWs)   bands (ev):

   -67.8079 -34.5891 -34.5891 -34.5891  -2.3956  -2.2967  -1.2876  -1.2689
    -1.2494  -1.0762  -0.1695  -0.0273   0.9203   0.9375   0.9562   1.1328
     2.0145   2.0167   2.0226   2.0775   2.1192   2.2734   3.1022   3.1134
     3.2047   3.2458   4.0943   4.1100   4.1353   4.1495   4.2429   4.2778
     4.3269   4.4940   5.0989   5.1061   5.1593   5.2729   5.3530   5.4065
     5.4138   5.6381   6.3416   6.3716   6.4150   6.4727   7.3267   7.3270
     7.4685   7.4870   8.2943   8.3111   8.3365   8.3624   8.4946   8.5065
     8.7471   8.7558   8.8506   8.9804   9.4256   9.4440

          k = 0.2500 0.3750 0.3750 ( 21425 PWs)   bands (ev):

   -67.8079 -34.5891 -34.5891 -34.5891  -2.4219  -1.8960  -1.8167  -1.3287
    -1.2535  -0.7823  -0.6683  -0.1514   0.9048   1.4043   1.4259   1.4439
     1.5698   1.9777   1.9952   2.1046   2.5034   2.6183   3.0321   3.0601
     3.1185   3.1777   3.5724   3.6828   4.1079   4.1458   4.1904   4.5218
     4.6054   4.6146   4.7342   4.7949   4.9194   5.1226   5.2374   5.2940
     5.4591   6.2744   6.3192   6.3458   6.7660   6.7968   6.8571   6.9621
     7.7830   7.8487   7.9055   7.9229   8.2691   8.3544   8.4260   8.4571
     8.7630   9.1333   9.2589   9.2742   9.3264   9.4505

          k = 0.2500 0.3750-0.5000 ( 21448 PWs)   bands (ev):

   -67.8079 -34.5891 -34.5891 -34.5891  -2.2205  -2.1301  -1.6614  -1.5502
    -1.1044  -0.9885  -0.5495  -0.3885   1.0998   1.1925   1.6404   1.6499
     1.7101   1.8292   2.2333   2.2683   2.7273   2.7757   2.7840   2.8883
     3.2548   3.3263   3.3278   3.4195   3.8639   3.8739   4.3044   4.3281
     4.3886   4.4959   4.8330   4.8984   5.0238   5.0481   5.4748   5.5209
     5.9694   5.9928   6.0542   6.1245   6.4692   6.6418   7.0670   7.1092
     7.5481   7.5830   8.0117   8.1443   8.5503   8.5845   8.6316   8.6679
     8.8440   8.9506   9.1081   9.1579   9.1773   9.1977

          k = 0.2500-0.5000-0.5000 ( 21452 PWs)   bands (ev):

   -67.8079 -34.5891 -34.5891 -34.5891  -1.9854  -1.9658  -1.9658  -1.7790
    -0.8712  -0.8516  -0.8516  -0.5973   1.3304   1.3480   1.3480   1.5598
     2.4134   2.4139   2.4139   2.4270   2.4297   2.5382   2.5382   2.7129
     3.4915   3.4921   3.4921   3.5050   3.5085   3.6386   3.6386   3.8081
     4.5279   4.5490   4.5490   4.8597   5.6472   5.6480   5.6480   5.6615
     5.6626   5.7693   5.7693   6.0205   6.7265   6.7804   6.7804   6.8238
     7.7928   7.8406   7.8406   7.8660   8.7492   8.7500   8.7500   8.7635
     8.7652   8.8698   8.8698   9.0717   9.0719   9.1463

          k = 0.3750 0.3750 0.3750 ( 21434 PWs)   bands (ev):

   -67.8079 -34.5891 -34.5891 -34.5891  -2.2493  -1.7218  -1.7218  -1.6068
    -1.1636  -1.1636  -0.9958  -0.5194   1.5841   1.5841   1.6923   2.1132
     2.1216   2.1216   2.1870   2.1870   2.3555   2.7120   2.7120   2.8076
     3.2362   3.2362   3.2879   3.7190   3.7278   3.7278   3.8135   3.8135
     3.9520   4.2700   4.2700   4.5607   5.3774   5.3774   5.5206   5.9288
     5.9288   6.0772   6.9232   6.9353   6.9353   7.0328   7.0328   7.0651
     7.4548   7.4700   7.4700   7.6016   7.6016   7.6781   8.5067   8.5067
     8.5770   9.0271   9.0271   9.1117   9.2522   9.8284

          k = 0.3750 0.3750-0.5000 ( 21392 PWs)   bands (ev):

   -67.8079 -34.5891 -34.5891 -34.5891  -2.0457  -1.9626  -1.4965  -1.4777
    -1.4580  -1.2990  -0.9305  -0.7470   1.8063   1.8218   1.8386   1.9714
     2.3522   2.3540   2.3611   2.4092   2.4520   2.5871   2.8998   2.9112
     3.0005   3.0508   3.4207   3.4210   3.4365   3.5173   3.5302   3.6446
     3.9515   3.9747   4.0011   4.3407   5.5897   5.7064   6.1199   6.1327
     6.2062   6.2719   6.6690   6.6904   6.7434   6.8011   7.1575   7.1581
     7.3043   7.3111   7.6970   7.7472   7.7480   7.7895   8.2127   8.2396
     8.3226   8.3686   8.7097   8.9190   9.8453   9.8456

          k = 0.3750-0.5000-0.5000 ( 21412 PWs)   bands (ev):

   -67.8079 -34.5891 -34.5891 -34.5891  -1.8107  -1.7916  -1.7916  -1.6342
    -1.2532  -1.2331  -1.2331  -0.9446   2.0439   2.0599   2.0599   2.2297
     2.5826   2.5832   2.5832   2.5962   2.5987   2.6950   2.6950   2.8445
     3.1225   3.1231   3.1231   3.1362   3.1396   3.2806   3.2806   3.4354
     3.6507   3.6761   3.6761   4.0878   6.3392   6.3398   6.3398   6.3530
     6.3548   6.4482   6.4482   6.6399   6.8956   6.9465   6.9465   7.0181
     7.4299   7.4786   7.4786   7.5116   7.8995   7.9002   7.9002   7.9144
     7.9153   8.0424   8.0424   8.3407  10.2458  10.2463

          k =-0.5000-0.5000-0.5000 ( 21368 PWs)   bands (ev):

   -67.8079 -34.5891 -34.5891 -34.5891  -1.5670  -1.5661  -1.5661  -1.5661
    -1.5276  -1.5276  -1.5276  -1.1190   2.8166   2.8166   2.8166   2.8170
     2.8170   2.8189   2.8189   2.8189   2.8214   2.8214   2.8214   2.8255
     2.8259   2.8259   2.8259   2.8444   2.8444   2.8444   2.8526   2.8526
     3.1007   3.1007   3.1007   3.7002   7.0900   7.0900   7.0900   7.0910
     7.0910   7.0910   7.0937   7.0937   7.0964   7.0964   7.0964   7.1052
     7.1052   7.1052   7.1100   7.1100   7.1108   7.1721   7.1721   7.1721
     7.4277   7.4277   7.4277   7.7624  11.2978  11.3097

     the Fermi energy is     7.8552 ev

!    total energy              =    -281.51918946 Ry
     estimated scf accuracy    <          3.8E-09 Ry
     smearing contrib. (-TS)   =      -0.00033174 Ry
     internal energy E=F+TS    =    -281.51885773 Ry

     The total energy is F=E-TS. E is the sum of the following terms:
     one-electron contribution =     -43.85141881 Ry
     hartree contribution      =      66.40808552 Ry
     xc contribution           =     -97.20866995 Ry
     ewald contribution        =    -206.86685448 Ry

     convergence has been achieved in   7 iterations

     Forces acting on atoms (cartesian axes, Ry/au):

     atom    1 type  1   force =     0.00000000   -0.00397604   -0.00397604
     atom    2 type  2   force =     0.00000000    0.00000000    0.00000000
     atom    3 type  1   force =     0.00397604   -0.00397604    0.00000000
     atom    4 type  1   force =     0.00397604   -0.00000000   -0.00397604
     atom    5 type  1   force =    -0.00000000   -0.00397604    0.00397604
     atom    6 type  1   force =     0.00000000    0.00000000    0.00000000
     atom    7 type  1   force =     0.00023189   -0.00023189    0.00000000
     atom    8 type  1   force =     0.00397604    0.00000000    0.00397604
     atom    9 type  1   force =    -0.00000000    0.00397604   -0.00397604
     atom   10 type  1   force =     0.00000000    0.00000000    0.00000000
     atom   11 type  1   force =     0.00397604    0.00397604    0.00000000
     atom   12 type  1   force =     0.00023189    0.00000000   -0.00023189
     atom   13 type  1   force =    -0.00000000    0.00397604    0.00397604
     atom   14 type  1   force =     0.00000000    0.00000000    0.00000000
     atom   15 type  1   force =     0.00023189    0.00023189   -0.00000000
     atom   16 type  1   force =     0.00023189    0.00000000    0.00023189
     atom   17 type  1   force =     0.00000000   -0.00023189   -0.00023189
     atom   18 type  1   force =     0.00000000    0.00000000    0.00000000
     atom   19 type  1   force =    -0.00397604   -0.00397604   -0.00000000
     atom   20 type  1   force =    -0.00397604    0.00000000   -0.00397604
     atom   21 type  1   force =    -0.00000000   -0.00023189    0.00023189
     atom   22 type  1   force =     0.00000000    0.00000000    0.00000000
     atom   23 type  1   force =    -0.00023189   -0.00023189    0.00000000
     atom   24 type  1   force =    -0.00397604    0.00000000    0.00397604
     atom   25 type  1   force =     0.00000000    0.00023189   -0.00023189
     atom   26 type  1   force =     0.00000000    0.00000000    0.00000000
     atom   27 type  1   force =    -0.00397604    0.00397604    0.00000000
     atom   28 type  1   force =    -0.00023189   -0.00000000   -0.00023189
     atom   29 type  1   force =     0.00000000    0.00023189    0.00023189
     atom   30 type  1   force =     0.00000000    0.00000000    0.00000000
     atom   31 type  1   force =    -0.00023189    0.00023189    0.00000000
     atom   32 type  1   force =    -0.00023189   -0.00000000    0.00023189

     Total force =     0.019512     Total SCF correction =     0.000090


     Computing stress (Cartesian axis) and pressure

          total   stress  (Ry/bohr**3)                   (kbar)     P=        0.60
   0.00000411   0.00000000   0.00000000            0.60        0.00        0.00
   0.00000000   0.00000411   0.00000000            0.00        0.60        0.00
   0.00000000   0.00000000   0.00000411            0.00        0.00        0.60

     Energy error            =      4.7E-04
     Gradient error          =      4.0E-03

     number of scf cycles    =   2
     number of bfgs steps    =   1

     energy   old            =    -281.5187171472 Ry
     energy   new            =    -281.5191894648 Ry

     CASE: energy  _new < energy  _old


     WARNING: bfgs curvature condition failed, Theta= 0.923
     new trust radius        =       0.0071411208 bohr
     new conv_thr            =       0.0000000004 Ry


ATOMIC_POSITIONS (angstrom)
Al            0.0000000000       -0.0051012796       -0.0051012796
Mg            0.0000000000        2.0250000000        2.0250000000
Al            2.0301012796       -0.0051012796        2.0250000000
Al            2.0301012796        2.0250000000       -0.0051012796
Al           -0.0000000000       -0.0051012796        4.0551012796
Al            0.0000000000        2.0250000000        6.0750000000
Al            2.0252258917       -0.0002258917        6.0750000000
Al            2.0301012796        2.0250000000        4.0551012796
Al           -0.0000000000        4.0551012796       -0.0051012796
Al            0.0000000000        6.0750000000        2.0250000000
Al            2.0301012796        4.0551012796        2.0250000000
Al            2.0252258917        6.0750000000       -0.0002258917
Al           -0.0000000000        4.0551012796        4.0551012796
Al            0.0000000000        6.0750000000        6.0750000000
Al            2.0252258917        4.0502258917        6.0750000000
Al            2.0252258917        6.0750000000        4.0502258917
Al            4.0500000000       -0.0002258917       -0.0002258917
Al            4.0500000000        2.0250000000        2.0250000000
Al            6.0698987204       -0.0051012796        2.0250000000
Al            6.0698987204        2.0250000000       -0.0051012796
Al            4.0500000000       -0.0002258917        4.0502258917
Al            4.0500000000        2.0250000000        6.0750000000
Al            6.0747741083       -0.0002258917        6.0750000000
Al            6.0698987204        2.0250000000        4.0551012796
Al            4.0500000000        4.0502258917       -0.0002258917
Al            4.0500000000        6.0750000000        2.0250000000
Al            6.0698987204        4.0551012796        2.0250000000
Al            6.0747741083        6.0750000000       -0.0002258917
Al            4.0500000000        4.0502258917        4.0502258917
Al            4.0500000000        6.0750000000        6.0750000000
Al            6.0747741083        4.0502258917        6.0750000000
Al            6.0747741083        6.0750000000        4.0502258917



     Writing output data file qe_tmp/Al31Mg.save/
     NEW-OLD atomic charge density approx. for the potential

     total cpu time spent up to now is    16929.2 secs

     Self-consistent Calculation

     iteration #  1     ecut=    50.00 Ry     beta= 0.70
     Davidson diagonalization with overlap
     ethr =  1.00E-06,  avg # of iterations =  3.1

     Threshold (ethr) on eigenvalues was too large:
     Diagonalizing with lowered threshold

     Davidson diagonalization with overlap
     ethr =  1.26E-08,  avg # of iterations =  8.0

     total cpu time spent up to now is    18650.1 secs

     total energy              =    -281.51957763 Ry
     estimated scf accuracy    <       0.00008303 Ry

     iteration #  2     ecut=    50.00 Ry     beta= 0.70
     Davidson diagonalization with overlap
     ethr =  8.06E-08,  avg # of iterations =  5.2

     total cpu time spent up to now is    19355.2 secs

     total energy              =    -281.51951675 Ry
     estimated scf accuracy    <       0.00090749 Ry

     iteration #  3     ecut=    50.00 Ry     beta= 0.70
     Davidson diagonalization with overlap
     ethr =  8.06E-08,  avg # of iterations =  5.1

     total cpu time spent up to now is    20046.3 secs

     total energy              =    -281.51962752 Ry
     estimated scf accuracy    <       0.00002254 Ry

     iteration #  4     ecut=    50.00 Ry     beta= 0.70
     Davidson diagonalization with overlap
     ethr =  2.19E-08,  avg # of iterations =  2.3

     total cpu time spent up to now is    20599.1 secs

     total energy              =    -281.51963166 Ry
     estimated scf accuracy    <       0.00000023 Ry

     iteration #  5     ecut=    50.00 Ry     beta= 0.70
     Davidson diagonalization with overlap
     ethr =  2.19E-10,  avg # of iterations =  8.6

     total cpu time spent up to now is    21719.1 secs

     total energy              =    -281.51963212 Ry
     estimated scf accuracy    <       0.00000030 Ry

     iteration #  6     ecut=    50.00 Ry     beta= 0.70
     Davidson diagonalization with overlap
     ethr =  2.19E-10,  avg # of iterations =  2.0

     total cpu time spent up to now is    22238.9 secs

     total energy              =    -281.51963212 Ry
     estimated scf accuracy    <       0.00000006 Ry

     iteration #  7     ecut=    50.00 Ry     beta= 0.70
     Davidson diagonalization with overlap
     ethr =  6.02E-11,  avg # of iterations =  4.2

     total cpu time spent up to now is    22852.0 secs

     total energy              =    -281.51963213 Ry
     estimated scf accuracy    <          4.5E-09 Ry

     iteration #  8     ecut=    50.00 Ry     beta= 0.70
     Davidson diagonalization with overlap
     c_bands:  1 eigenvalues not converged
     ethr =  4.34E-12,  avg # of iterations =  6.5

     total cpu time spent up to now is    23671.9 secs

     total energy              =    -281.51963214 Ry
     estimated scf accuracy    <          1.8E-09 Ry

     iteration #  9     ecut=    50.00 Ry     beta= 0.70
     Davidson diagonalization with overlap
     c_bands:  1 eigenvalues not converged
     ethr =  1.72E-12,  avg # of iterations =  2.7

     total cpu time spent up to now is    24208.0 secs

     End of self-consistent calculation

          k = 0.0000 0.0000 0.0000 ( 21367 PWs)   bands (ev):

   -67.8123 -34.5932 -34.5932 -34.5932  -3.1879  -1.0122  -1.0122  -0.9750
    -0.9750  -0.9750  -0.7217   1.1895   1.1895   1.1895   1.1963   1.1963
     1.2099   1.2099   1.2099   1.3109   1.3109   1.3109   1.7339   3.2837
     3.3596   3.3596   3.3596   3.4940   3.4940   3.4940   3.8496   5.0028
     5.0028   5.0028   6.2732   6.2732   6.4427   7.0013   7.0013   7.0013
     7.0062   7.0062   7.0062   7.0491   7.0491   7.0491   7.2353   7.2353
     7.2353   8.0112   8.0889   8.0889   8.1088   8.1088   8.1088   8.9238
     8.9238   8.9273   8.9273   8.9273   9.0816   9.0876

          k = 0.0000 0.0000 0.1250 ( 21419 PWs)   bands (ev):

   -67.8123 -34.5932 -34.5932 -34.5932  -3.1529  -1.4792  -0.9775  -0.9404
    -0.9404  -0.7940  -0.3374   0.6792   0.7135   0.7135   0.8633   1.2441
     1.2838   1.2838   1.4005   1.7726   1.8127   1.8127   2.0711   2.8713
     2.9175   2.9175   3.0568   3.9719   4.0014   4.0014   4.2213   4.4385
     5.0349   5.0349   6.3071   6.4053   6.4528   6.4731   6.4731   6.5881
     6.5881   6.6835   6.9660   7.0386   7.0815   7.1511   7.1511   7.6375
     7.6375   7.8352   7.8905   8.3324   8.3697   8.3697   8.4118   8.5773
     8.5891   8.5891   8.5970   8.6479   8.7684   8.7684

          k = 0.0000 0.0000 0.2500 ( 21418 PWs)   bands (ev):

   -67.8123 -34.5932 -34.5932 -34.5932  -3.0481  -1.9252  -0.8734  -0.8367
    -0.8367  -0.6906   0.2325   0.2691   0.2691   0.2817   0.4739   1.3466
     1.3858   1.3858   1.5050   2.4171   2.4344   2.4344   2.4352   2.5006
     2.5006   2.5212   2.7983   3.5484   4.6040   4.6323   4.6323   4.8284
     5.1310   5.1310   5.5847   5.6182   5.6182   5.8135   6.1683   6.1683
     6.4093   6.5239   7.1359   7.1784   7.2455   7.2455   7.4628   7.5127
     7.7332   7.7600   7.7600   7.9765   8.0333   8.1748   8.2006   8.2006
     8.2203   8.3423   8.3423   8.5576   8.6255   8.6255

          k = 0.0000 0.0000 0.3750 ( 21446 PWs)   bands (ev):

   -67.8123 -34.5932 -34.5932 -34.5932  -2.8751  -2.3048  -0.7002  -0.6647
    -0.6647  -0.5398  -0.1466  -0.1081  -0.1081   0.1018   1.0170   1.5172
     1.5536   1.5536   1.6562   2.0627   2.1087   2.1087   2.2529   2.6774
[...]
    -0.6234  -0.5002  -0.0749   0.0306   0.4800   0.5299   0.6305   1.0721
     1.1390   1.6155   1.6662   2.1792   2.2236   2.6599   2.6930   2.7267
     2.8317   3.2885   3.7358   3.9002   4.2544   4.3687   4.3955   4.7360
     4.7646   5.2691   5.2999   5.3178   5.4088   5.4534   5.4965   5.9530
     6.2996   6.4015   6.5009   6.8202   6.9678   6.9714   7.0578   7.2352
     7.3128   7.3913   7.4064   7.7387   7.8093   7.9454   7.9484   8.0988
     8.4914   8.5219   8.9060   8.9458   9.2846   9.4627

          k = 0.1250 0.1250-0.5000 ( 21386 PWs)   bands (ev):

   -67.8357 -34.6154 -34.6154 -34.6154  -2.6284  -2.4969  -0.9756  -0.9315
    -0.8995  -0.7178   0.1305   0.1739   0.2065   0.4089   0.7032   0.8925
     1.7886   1.7914   1.8219   1.8803   1.9397   2.0839   2.8792   3.0664
     3.4244   3.4333   3.5555   3.5886   4.4918   4.5029   4.6341   4.6681
     4.9008   4.9060   5.0210   5.0548   5.1374   5.2134   6.1491   6.1625
     6.2350   6.2353   6.4735   6.5141   6.5862   6.8116   7.2337   7.2432
     7.4143   7.4603   7.5168   7.5309   7.5483   7.6690   7.7468   7.7637
     9.0592   9.0779   9.1401   9.1823   9.1841   9.2134

          k = 0.1250 0.2500 0.2500 ( 21396 PWs)   bands (ev):

   -67.8357 -34.6154 -34.6154 -34.6154  -2.8825  -1.8076  -1.7105  -1.1909
    -0.6408  -0.1413  -0.1071   0.0025   0.4067   0.5378   0.9559   1.0100
     1.1200   1.5521   1.6048   2.0530   2.1268   2.2192   3.1221   3.1927
     3.1951   3.2856   3.6839   3.7100   3.7697   4.2721   4.3850   4.6836
     4.7002   4.8280   5.2797   5.2975   5.3803   5.6780   5.8184   6.3084
     6.3463   6.3494   6.4379   6.4916   6.8173   6.8946   6.9355   7.2149
     7.3737   7.5252   7.7718   7.9081   8.1546   8.2218   8.2584   8.4053
     8.4805   8.5239   8.8758   8.9604   9.2089   9.2331

          k = 0.1250 0.2500 0.3750 ( 21425 PWs)   bands (ev):

   -67.8357 -34.6154 -34.6154 -34.6154  -2.7110  -2.1407  -1.5847  -1.0541
    -0.9844  -0.4547   0.0582   0.1138   0.6000   0.6326   0.7067   1.1473
     1.1741   1.2878   1.7731   2.2605   2.3050   2.7710   2.8186   2.9116
     3.3587   3.7848   3.8556   3.8827   3.8888   4.0783   4.3961   4.4445
     4.4764   4.8458   5.0221   5.3385   5.3780   5.5045   5.6266   5.8456
     6.0253   6.0603   6.1283   6.5061   6.5257   6.6083   7.1000   7.1190
     7.3804   7.4939   7.6335   7.9992   8.0537   8.3416   8.4629   8.5106
     8.5736   8.6892   8.9679   9.0596   9.1525   9.2506

          k = 0.1250 0.2500-0.5000 ( 21404 PWs)   bands (ev):

   -67.8357 -34.6154 -34.6154 -34.6154  -2.5233  -2.3958  -1.4058  -1.2666
    -0.8486  -0.6917   0.2454   0.2655   0.3631   0.4658   0.8046   0.9767
     1.3522   1.5400   1.9688   1.9893   2.4403   2.6226   3.0530   3.0576
     3.5119   3.5941   3.6043   3.7111   4.0176   4.1816   4.6322   4.6329
     4.7176   4.7386   5.0045   5.1593   5.2049   5.2295   5.6341   5.7308
     5.7651   5.8639   6.0745   6.3190   6.6811   6.8195   6.8387   6.8931
     7.5052   7.6165   7.8767   7.9013   8.1568   8.3386   8.3874   8.4301
     8.4884   8.6287   8.6447   8.9333   9.3092   9.3640

          k = 0.1250 0.3750 0.3750 ( 21399 PWs)   bands (ev):

   -67.8357 -34.6154 -34.6154 -34.6154  -2.5394  -2.0170  -1.9172  -1.3882
    -0.8545  -0.3480  -0.2237   0.2397   0.3099   0.7516   0.8722   1.2935
     1.3643   1.4520   1.8908   1.9664   2.9209   2.9633   2.9765   3.0569
     3.4516   3.5281   3.5503   3.6292   3.9947   4.1160   4.5588   4.5763
     4.6182   4.7047   5.0017   5.0964   5.1580   5.2316   5.4797   5.6220
     5.6505   5.7174   6.1469   6.1575   6.3250   6.7178   6.7238   6.7813
     7.4883   7.8214   8.0746   8.1968   8.3086   8.3161   8.4031   8.6200
     8.7377   8.7699   9.1946   9.2933   9.3658   9.3881

          k = 0.1250 0.3750-0.5000 ( 21438 PWs)   bands (ev):

   -67.8357 -34.6154 -34.6154 -34.6154  -2.3483  -2.2335  -1.7883  -1.6277
    -0.6760  -0.5433  -0.1224   0.0802   0.4268   0.5581   0.9763   1.1757
     1.5194   1.6780   2.1340   2.1566   2.6897   2.6904   3.1365   3.1457
     3.3002   3.3238   3.7585   3.7800   4.1540   4.1999   4.3950   4.5117
     4.6732   4.7410   4.9188   5.0487   5.1679   5.3099   5.3977   5.4265
     5.6609   5.7922   5.8214   5.9475   6.0289   6.1201   7.3599   7.3807
     7.5122   7.5193   7.8505   7.9873   8.2848   8.4834   8.5596   8.6747
     8.8375   8.9999   9.0571   9.0844   9.3762   9.4054

          k = 0.1250-0.5000-0.5000 ( 21408 PWs)   bands (ev):

   -67.8357 -34.6154 -34.6154 -34.6154  -2.1191  -2.0869  -2.0869  -1.8418
    -0.4499  -0.4170  -0.4170  -0.1125   0.6518   0.6834   0.6834   0.9890
     2.2810   2.2810   2.2837   2.3199   2.3239   2.4672   2.4672   2.6443
     3.8915   3.8915   3.8943   3.9345   3.9383   4.0982   4.0982   4.2284
     4.9927   4.9936   4.9936   5.0303   5.0345   5.1838   5.1838   5.3783
     5.4139   5.4139   5.4666   5.7548   6.6360   6.6618   6.6618   6.6897
     7.9838   8.0113   8.0113   8.2216   8.2503   8.2607   8.2607   8.4709
     9.2994   9.3095   9.3095   9.3684   9.5605   9.5636

          k = 0.2500 0.2500 0.2500 ( 21428 PWs)   bands (ev):

   -67.8357 -34.6154 -34.6154 -34.6154  -2.7784  -1.7034  -1.7034  -1.5451
    -0.5895  -0.5895  -0.3972   0.5094   0.5094   0.5829   0.7007   1.5662
     1.6042   1.6042   1.6970   1.6970   1.8993   2.7494   2.7494   2.8322
     3.7567   3.7567   3.7927   3.7927   3.8197   3.9940   4.7561   4.7938
     4.7938   4.8716   4.8716   4.9368   4.9368   4.9874   5.1095   5.8900
     5.8900   6.1379   6.9016   6.9294   6.9294   7.0502   7.0502   7.0568
     7.1145   7.9669   7.9975   7.9975   8.1180   8.1180   8.1957   8.2513
     8.2513   8.3651   9.2729   9.3070   9.3071   9.4181

          k = 0.2500 0.2500 0.3750 ( 21397 PWs)   bands (ev):

   -67.8357 -34.6154 -34.6154 -34.6154  -2.6069  -2.0394  -1.5305  -1.4257
    -0.9691  -0.8450  -0.3430   0.2300   0.6796   0.7757   1.2301   1.2680
     1.3880   1.8184   1.8672   2.3116   2.3829   2.3930   2.5300   2.9220
     3.4684   3.9110   3.9510   3.9648   3.9792   4.0585   4.4577   4.4976
     4.5136   4.5342   4.6865   4.9631   5.0596   5.1211   5.5274   5.6083
     5.6518   5.7887   6.0741   6.2339   7.1215   7.1419   7.1848   7.2555
     7.6177   7.6628   7.7374   7.7506   7.7767   8.3813   8.4502   8.6791
     8.8213   8.9973   9.0425   9.2790   9.2939   9.3453

          k = 0.2500 0.2500-0.5000 ( 21422 PWs)   bands (ev):

   -67.8357 -34.6154 -34.6154 -34.6154  -2.4182  -2.2945  -1.3228  -1.2783
    -1.2457  -1.0572  -0.1914   0.0056   0.8850   0.9277   0.9577   1.1503
     1.9914   1.9946   2.0252   2.0806   2.1417   2.2867   3.0890   3.0969
     3.2230   3.2514   4.0806   4.1114   4.1155   4.1286   4.2603   4.2926
     4.3324   4.4939   5.0730   5.1010   5.1589   5.2923   5.3370   5.3994
     5.4279   5.6713   6.3467   6.3628   6.4348   6.4669   7.2969   7.3117
     7.4989   7.5011   8.2920   8.3130   8.3385   8.3586   8.4995   8.5046
     8.7291   8.7516   8.8599   8.9745   9.4198   9.4247

          k = 0.2500 0.3750 0.3750 ( 21425 PWs)   bands (ev):

   -67.8357 -34.6154 -34.6154 -34.6154  -2.4354  -1.9126  -1.8202  -1.3318
    -1.2618  -0.7970  -0.6582  -0.1326   0.8916   1.3895   1.4046   1.4490
     1.5725   1.9777   1.9908   2.1188   2.4891   2.6248   3.0306   3.0564
     3.1160   3.1877   3.5569   3.6945   4.1029   4.1435   4.1822   4.5095
     4.6032   4.6185   4.7378   4.7829   4.9187   5.1360   5.2368   5.3028
     5.4813   6.2685   6.3104   6.3492   6.7535   6.8037   6.8531   6.9861
     7.7665   7.8607   7.8963   7.9239   8.2676   8.3578   8.4296   8.4733
     8.7535   9.1209   9.2633   9.2723   9.3221   9.4431

          k = 0.2500 0.3750-0.5000 ( 21448 PWs)   bands (ev):

   -67.8357 -34.6154 -34.6154 -34.6154  -2.2434  -2.1318  -1.6842  -1.5373
    -1.1261  -0.9823  -0.5711  -0.3474   1.0764   1.1939   1.6129   1.6325
     1.7277   1.8502   2.2342   2.2589   2.7066   2.7751   2.7872   2.8954
     3.2356   3.3309   3.3335   3.4253   3.8709   3.8783   4.2795   4.3113
     4.4131   4.5000   4.8135   4.8758   5.0420   5.0864   5.4769   5.5067
     5.9769   5.9798   6.0699   6.1280   6.4476   6.6653   7.0803   7.1010
     7.5551   7.5775   7.9883   8.1610   8.5606   8.5795   8.6372   8.6542
     8.8229   8.9536   9.1200   9.1550   9.1916   9.1973

          k = 0.2500-0.5000-0.5000 ( 21452 PWs)   bands (ev):

   -67.8357 -34.6154 -34.6154 -34.6154  -2.0142  -1.9824  -1.9824  -1.7503
    -0.9000  -0.8663  -0.8663  -0.5360   1.3012   1.3315   1.3315   1.6090
     2.3827   2.3827   2.3854   2.4207   2.4254   2.5633   2.5633   2.7336
     3.4603   3.4603   3.4634   3.5041   3.5072   3.6759   3.6759   3.8392
     4.4988   4.5371   4.5371   4.9169   5.6166   5.6166   5.6180   5.6567
     5.6593   5.8034   5.8034   6.0370   6.7517   6.7729   6.7729   6.8237
     7.8219   7.8352   7.8352   7.8530   8.7157   8.7157   8.7194   8.7580
     8.7649   8.9121   8.9121   9.0284   9.0594   9.0594

          k = 0.3750 0.3750 0.3750 ( 21434 PWs)   bands (ev):

   -67.8357 -34.6154 -34.6154 -34.6154  -2.2638  -1.7394  -1.7394  -1.6023
    -1.1772  -1.1772  -0.9798  -0.4929   1.5644   1.5644   1.7010   2.0745
     2.1122   2.1122   2.1959   2.1959   2.3620   2.7176   2.7176   2.8320
     3.2276   3.2276   3.2808   3.6803   3.7190   3.7190   3.8321   3.8321
     3.9574   4.2655   4.2655   4.6085   5.3603   5.3603   5.5337   5.9278
     5.9278   6.0972   6.9003   6.9246   6.9246   7.0310   7.0310   7.0828
     7.4353   7.4687   7.4687   7.6133   7.6133   7.7127   8.5060   8.5060
     8.5730   9.0170   9.0170   9.1125   9.2960   9.8177

          k = 0.3750 0.3750-0.5000 ( 21392 PWs)   bands (ev):

   -67.8357 -34.6154 -34.6154 -34.6154  -2.0688  -1.9672  -1.5316  -1.4870
    -1.4540  -1.2904  -0.9517  -0.6959   1.7707   1.8106   1.8361   1.9778
     2.3281   2.3322   2.3628   2.4089   2.4742   2.6025   2.8879   2.8945
     3.0148   3.0557   3.3979   3.4003   3.4455   3.5375   3.5428   3.6435
     3.9159   3.9722   4.0228   4.3928   5.5659   5.7181   6.1055   6.1128
     6.2223   6.2742   6.6743   6.6802   6.7665   6.8021   7.1281   7.1432
     7.3195   7.3285   7.7014   7.7483   7.7569   7.7797   8.2132   8.2208
     8.3506   8.3741   8.6908   8.9559   9.8441   9.8546

          k = 0.3750-0.5000-0.5000 ( 21412 PWs)   bands (ev):

   -67.8357 -34.6154 -34.6154 -34.6154  -1.8396  -1.8092  -1.8092  -1.6152
    -1.2820  -1.2466  -1.2466  -0.8731   2.0144   2.0417   2.0417   2.2731
     2.5521   2.5521   2.5546   2.5865   2.5942   2.7145   2.7145   2.8631
     3.0912   3.0912   3.0944   3.1357   3.1413   3.3201   3.3201   3.4753
     3.6220   3.6700   3.6700   4.1437   6.3075   6.3075   6.3098   6.3489
     6.3500   6.4784   6.4784   6.6400   6.9199   6.9390   6.9390   7.0261
     7.4598   7.4756   7.4756   7.5027   7.8672   7.8672   7.8699   7.9088
     7.9165   8.0857   8.0857   8.3809  10.2307  10.2330

          k =-0.5000-0.5000-0.5000 ( 21368 PWs)   bands (ev):

   -67.8357 -34.6154 -34.6154 -34.6154  -1.6013  -1.6013  -1.6013  -1.5894
    -1.5236  -1.5236  -1.5236  -1.0323   2.7676   2.7676   2.7676   2.7783
     2.7783   2.7783   2.7868   2.7868   2.7954   2.7954   2.7954   2.8129
     2.8230   2.8230   2.8230   2.8647   2.8647   2.8647   2.8934   2.8934
     3.1708   3.1708   3.1708   3.7498   7.0511   7.0511   7.0511   7.0539
     7.0539   7.0539   7.0737   7.0737   7.0764   7.0764   7.0764   7.1013
     7.1013   7.1016   7.1016   7.1016   7.1481   7.2280   7.2280   7.2280
     7.4694   7.4694   7.4694   7.8054  11.3158  11.3433

     the Fermi energy is     7.8559 ev

!    total energy              =    -281.52067279 Ry
     estimated scf accuracy    <          2.0E-11 Ry
     smearing contrib. (-TS)   =      -0.00054589 Ry
     internal energy E=F+TS    =    -281.52012690 Ry

     The total energy is F=E-TS. E is the sum of the following terms:
     one-electron contribution =     -42.59580487 Ry
     hartree contribution      =      65.77015941 Ry
     xc contribution           =     -97.21367256 Ry
     ewald contribution        =    -207.48080889 Ry

     convergence has been achieved in  10 iterations

     Forces acting on atoms (cartesian axes, Ry/au):

     atom    1 type  1   force =     0.00000000    0.00004704    0.00004704
     atom    2 type  2   force =     0.00000000    0.00000000    0.00000000
     atom    3 type  1   force =    -0.00004704    0.00004704    0.00000000
     atom    4 type  1   force =    -0.00004704    0.00000000    0.00004704
     atom    5 type  1   force =    -0.00000000    0.00004704   -0.00004704
     atom    6 type  1   force =     0.00000000    0.00000000    0.00000000
     atom    7 type  1   force =     0.00047334   -0.00047334   -0.00000000
     atom    8 type  1   force =    -0.00004704    0.00000000   -0.00004704
     atom    9 type  1   force =     0.00000000   -0.00004704    0.00004704
     atom   10 type  1   force =     0.00000000    0.00000000    0.00000000
     atom   11 type  1   force =    -0.00004704   -0.00004704    0.00000000
     atom   12 type  1   force =     0.00047334   -0.00000000   -0.00047334
     atom   13 type  1   force =     0.00000000   -0.00004704   -0.00004704
     atom   14 type  1   force =     0.00000000    0.00000000    0.00000000
     atom   15 type  1   force =     0.00047334    0.00047334   -0.00000000
     atom   16 type  1   force =     0.00047334   -0.00000000    0.00047334
     atom   17 type  1   force =    -0.00000000   -0.00047334   -0.00047334
     atom   18 type  1   force =     0.00000000    0.00000000    0.00000000
     atom   19 type  1   force =     0.00004704    0.00004704   -0.00000000
     atom   20 type  1   force =     0.00004704    0.00000000    0.00004704
     atom   21 type  1   force =     0.00000000   -0.00047334    0.00047334
     atom   22 type  1   force =     0.00000000    0.00000000    0.00000000
     atom   23 type  1   force =    -0.00047334   -0.00047334   -0.00000000
     atom   24 type  1   force =     0.00004704   -0.00000000   -0.00004704
     atom   25 type  1   force =    -0.00000000    0.00047334   -0.00047334
     atom   26 type  1   force =     0.00000000    0.00000000    0.00000000
     atom   27 type  1   force =     0.00004704   -0.00004704    0.00000000
     atom   28 type  1   force =    -0.00047334    0.00000000   -0.00047334
     atom   29 type  1   force =     0.00000000    0.00047334    0.00047334
     atom   30 type  1   force =     0.00000000    0.00000000    0.00000000
     atom   31 type  1   force =    -0.00047334    0.00047334    0.00000000
     atom   32 type  1   force =    -0.00047334    0.00000000    0.00047334

     Total force =     0.002330     Total SCF correction =     0.000005


     Computing stress (Cartesian axis) and pressure

          total   stress  (Ry/bohr**3)                   (kbar)     P=        0.83
   0.00000563   0.00000000   0.00000000            0.83        0.00        0.00
   0.00000000   0.00000563   0.00000000            0.00        0.83        0.00
   0.00000000   0.00000000   0.00000563            0.00        0.00        0.83

     Energy error            =      8.3E-05
     Gradient error          =      4.7E-04

     bfgs converged in   6 scf cycles and   5 bfgs steps
     (criteria: energy <  1.0E-04 Ry, force <  1.0E-03 Ry/Bohr)

     End of BFGS Geometry Optimization

     Final energy   =    -281.5206727916 Ry

     File qe_tmp/Al31Mg.bfgs deleted, as requested
Begin final coordinates

ATOMIC_POSITIONS (angstrom)
Al           -0.0000000000       -0.0188369023       -0.0188369023
Mg            0.0000000000        2.0250000000        2.0250000000
Al            2.0438369023       -0.0188369023        2.0250000000
Al            2.0438369023        2.0250000000       -0.0188369023
Al            0.0000000000       -0.0188369023        4.0688369023
Al            0.0000000000        2.0250000000        6.0750000000
Al            2.0269984016       -0.0019984016        6.0750000000
Al            2.0438369023        2.0250000000        4.0688369023
Al           -0.0000000000        4.0688369023       -0.0188369023
Al            0.0000000000        6.0750000000        2.0250000000
Al            2.0438369023        4.0688369023        2.0250000000
Al            2.0269984016        6.0750000000       -0.0019984016
Al           -0.0000000000        4.0688369023        4.0688369023
Al            0.0000000000        6.0750000000        6.0750000000
Al            2.0269984016        4.0519984016        6.0750000000
Al            2.0269984016        6.0750000000        4.0519984016
Al            4.0500000000       -0.0019984016       -0.0019984016
Al            4.0500000000        2.0250000000        2.0250000000
Al            6.0561630977       -0.0188369023        2.0250000000
Al            6.0561630977        2.0250000000       -0.0188369023
Al            4.0500000000       -0.0019984016        4.0519984016
Al            4.0500000000        2.0250000000        6.0750000000
Al            6.0730015984       -0.0019984016        6.0750000000
Al            6.0561630977        2.0250000000        4.0688369023
Al            4.0500000000        4.0519984016       -0.0019984016
Al            4.0500000000        6.0750000000        2.0250000000
Al            6.0561630977        4.0688369023        2.0250000000
Al            6.0730015984        6.0750000000       -0.0019984016
Al            4.0500000000        4.0519984016        4.0519984016
Al            4.0500000000        6.0750000000        6.0750000000
Al            6.0730015984        4.0519984016        6.0750000000
Al            6.0730015984        6.0750000000        4.0519984016
End final coordinates



     Writing output data file qe_tmp/Al31Mg.save/

     init_run     :    393.42s CPU    400.09s WALL (       1 calls)
     electrons    :  45375.20s CPU  46036.70s WALL (       6 calls)
     update_pot   :     10.55s CPU     12.77s WALL (       5 calls)
     forces       :    890.89s CPU    919.56s WALL (       6 calls)
     stress       :   1362.06s CPU   1437.70s WALL (       6 calls)

     Called by init_run:
     wfcinit      :    382.68s CPU    384.67s WALL (       1 calls)
     potinit      :      0.89s CPU      1.09s WALL (       1 calls)
     hinit0       :      1.15s CPU      1.16s WALL (       1 calls)

     Called by electrons:
     c_bands      :  41106.52s CPU  41321.96s WALL (      62 calls)
     sum_band     :   3905.59s CPU   4125.03s WALL (      62 calls)
     v_of_rho     :     79.45s CPU    128.93s WALL (      63 calls)
     newd         :    248.37s CPU    419.19s WALL (      63 calls)
     mix_rho      :     52.42s CPU     65.06s WALL (      62 calls)

     Called by c_bands:
     init_us_2    :    220.40s CPU    227.87s WALL (    4795 calls)
     cegterg      :  39850.44s CPU  39973.82s WALL (    2170 calls)

     Called by *egterg:
     cdiaghg      :    138.66s CPU    140.12s WALL (   12641 calls)
     h_psi        :  20830.92s CPU  20891.92s WALL (   13026 calls)
     s_psi        :   6647.11s CPU   6648.94s WALL (   13026 calls)
     g_psi        :    187.71s CPU    187.91s WALL (   10821 calls)

     Called by h_psi:
     h_psi:calbec :   6198.70s CPU   6201.40s WALL (   13026 calls)
     vloc_psi     :   7939.45s CPU   7960.21s WALL (   13026 calls)
     add_vuspsi   :   6651.15s CPU   6653.15s WALL (   13026 calls)

     General routines
     calbec       :   9144.36s CPU   9147.63s WALL (   16246 calls)
     fft          :     27.24s CPU     28.16s WALL (     967 calls)
     ffts         :      1.08s CPU      1.08s WALL (     125 calls)
     fftw         :   8202.98s CPU   8224.96s WALL (  975764 calls)
     interpolate  :      2.76s CPU      2.79s WALL (      63 calls)

     Parallel routines

     PWSCF        :     13h20m CPU     13h34m WALL


   This run was terminated on:   2:26:28  15Jul2026            

=------------------------------------------------------------------------------=
   JOB DONE.
=------------------------------------------------------------------------------=
