
     Program PWSCF v.6.7MaX starts on 14Jul2026 at 10: 6: 8 

     This program is part of the open-source Quantum ESPRESSO suite
     for quantum simulation of materials; please cite
         "P. Giannozzi et al., J. Phys.:Condens. Matter 21 395502 (2009);
         "P. Giannozzi et al., J. Phys.:Condens. Matter 29 465901 (2017);
          URL http://www.quantum-espresso.org", 
     in publications or presentations arising from this work. More details at
     http://www.quantum-espresso.org/quote

     Parallel version (MPI), running on     1 processors

     MPI processes distributed on     1 nodes
     Waiting for input...
     Reading input from standard input
Warning: card &CELL ignored
Warning: card    PRESS_CONV_THR   = 0.5 ignored
Warning: card / ignored
Warning: card &FCP ignored
Warning: card / ignored
Warning: card &RISM ignored
Warning: card / ignored

     Current dimensions of program PWSCF are:
     Max number of different atomic species (ntypx) = 10
     Max number of k-points (npk) =  40000
     Max angular momentum in pseudopotentials (lmaxx) =  3

     IMPORTANT: XC functional enforced from input :
     Exchange-correlation= PBE
                           (   1   4   3   4   0   0   0)
     Any further DFT definition will be discarded
     Please, verify this is what you really want


     Subspace diagonalization in iterative solution of the eigenvalue problem:
     a serial algorithm will be used

     Message from routine setup:
     using ibrav=0 with symmetry is DISCOURAGED, use correct ibrav instead

     G-vector sticks info
     --------------------
     sticks:   dense  smooth     PW     G-vecs:    dense   smooth      PW
     Sum         955     499    151                19891     7119    1243



     bravais-lattice index     =            0
     lattice parameter (alat)  =       5.4118  a.u.
     unit-cell volume          =     112.0732 (a.u.)^3
     number of atoms/cell      =            1
     number of atomic types    =            1
     number of electrons       =         3.00
     number of Kohn-Sham states=            6
     kinetic-energy cutoff     =      60.0000  Ry
     charge density cutoff     =     480.0000  Ry
     scf convergence threshold =      1.0E-08
     mixing beta               =       0.7000
     number of iterations used =            8  plain     mixing
     Exchange-correlation= PBE
                           (   1   4   3   4   0   0   0)

     celldm(1)=   5.411765  celldm(2)=   0.000000  celldm(3)=   0.000000
     celldm(4)=   0.000000  celldm(5)=   0.000000  celldm(6)=   0.000000

     crystal axes: (cart. coord. in units of alat)
               a(1) = (   0.000000   0.707107   0.707107 )  
               a(2) = (   0.707107   0.000000   0.707107 )  
               a(3) = (   0.707107   0.707107   0.000000 )  

     reciprocal axes: (cart. coord. in units 2 pi/alat)
               b(1) = ( -0.707107  0.707107  0.707107 )  
               b(2) = (  0.707107 -0.707107  0.707107 )  
               b(3) = (  0.707107  0.707107 -0.707107 )  


     PseudoPot. # 1 for Al read from file:
     ../../../pseudos/Al.us.pbe.z_3.ld1.psl.v1.0.0-low.upf
     MD5 check sum: ce85e4ab7f99e505e5d81ad4c7630c6b
     Pseudo is Ultrasoft + core correction, Zval =  3.0
     Generated using &quot;atomic&quot; code by A. Dal Corso  v.6.3MaX
     Using radial grid of 1135 points,  4 beta functions with: 
                l(1) =   0
                l(2) =   0
                l(3) =   1
                l(4) =   1
     Q(r) pseudized with 0 coefficients 


     atomic species   valence    mass     pseudopotential
        Al             3.00    26.98154     Al( 1.00)

     48 Sym. Ops., with inversion, found



   Cartesian axes

     site n.     atom                  positions (alat units)
         1           Al  tau(   1) = (   0.0000000   0.0000000   0.0000000  )

     number of k points=    29  Marzari-Vanderbilt smearing, width (Ry)=  0.0200
                       cart. coord. in units 2pi/alat
        k(    1) = (   0.0000000   0.0000000   0.0000000), wk =   0.0039062
        k(    2) = (   0.0883883   0.0883883  -0.0883883), wk =   0.0312500
        k(    3) = (   0.1767767   0.1767767  -0.1767767), wk =   0.0312500
        k(    4) = (   0.2651650   0.2651650  -0.2651650), wk =   0.0312500
        k(    5) = (  -0.3535534  -0.3535534   0.3535534), wk =   0.0156250
        k(    6) = (   0.1767767   0.0000000   0.0000000), wk =   0.0234375
        k(    7) = (   0.2651650   0.0883883  -0.0883883), wk =   0.0937500
        k(    8) = (   0.3535534   0.1767767  -0.1767767), wk =   0.0937500
        k(    9) = (  -0.2651650  -0.4419417   0.4419417), wk =   0.0937500
        k(   10) = (  -0.1767767  -0.3535534   0.3535534), wk =   0.0937500
        k(   11) = (  -0.0883883  -0.2651650   0.2651650), wk =   0.0937500
        k(   12) = (   0.0000000  -0.1767767   0.1767767), wk =   0.0468750
        k(   13) = (   0.3535534   0.0000000   0.0000000), wk =   0.0234375
        k(   14) = (   0.4419417   0.0883883  -0.0883883), wk =   0.0937500
        k(   15) = (  -0.1767767  -0.5303301   0.5303301), wk =   0.0937500
        k(   16) = (  -0.0883883  -0.4419417   0.4419417), wk =   0.0937500
        k(   17) = (   0.0000000  -0.3535534   0.3535534), wk =   0.0468750
        k(   18) = (   0.5303301   0.0000000   0.0000000), wk =   0.0234375
        k(   19) = (  -0.0883883  -0.6187184   0.6187184), wk =   0.0937500
        k(   20) = (   0.0000000  -0.5303301   0.5303301), wk =   0.0468750
        k(   21) = (  -0.7071068   0.0000000   0.0000000), wk =   0.0117188
        k(   22) = (   0.3535534   0.1767767   0.0000000), wk =   0.0937500
        k(   23) = (  -0.2651650  -0.4419417   0.6187184), wk =   0.1875000
        k(   24) = (  -0.1767767  -0.3535534   0.5303301), wk =   0.0937500
        k(   25) = (  -0.1767767  -0.5303301   0.7071068), wk =   0.0937500
        k(   26) = (  -0.0883883  -0.4419417   0.6187184), wk =   0.1875000
        k(   27) = (   0.0000000  -0.3535534   0.5303301), wk =   0.0937500
        k(   28) = (  -0.7071068   0.1767767   0.0000000), wk =   0.0468750
        k(   29) = (  -0.7071068   0.3535534   0.0000000), wk =   0.0234375

     Dense  grid:    19891 G-vectors     FFT dimensions: (  40,  40,  40)

     Smooth grid:     7119 G-vectors     FFT dimensions: (  27,  27,  27)

     Estimated max dynamical RAM per process >      30.77 MB

     Initial potential from superposition of free atoms

     starting charge    2.99771, renormalised to    3.00000
     Starting wfcs are    4 randomized atomic wfcs +    2 random wfcs

     total cpu time spent up to now is        0.8 secs

     Self-consistent Calculation

     iteration #  1     ecut=    60.00 Ry     beta= 0.70
     Davidson diagonalization with overlap
     ethr =  1.00E-02,  avg # of iterations =  5.9

     Threshold (ethr) on eigenvalues was too large:
     Diagonalizing with lowered threshold

     Davidson diagonalization with overlap
     ethr =  1.94E-04,  avg # of iterations =  2.9

     total cpu time spent up to now is        2.5 secs

     total energy              =      -5.03845770 Ry
     estimated scf accuracy    <       0.00567863 Ry

     iteration #  2     ecut=    60.00 Ry     beta= 0.70
     Davidson diagonalization with overlap
     ethr =  1.89E-04,  avg # of iterations =  1.1

     total cpu time spent up to now is        3.1 secs

     total energy              =      -5.03845331 Ry
     estimated scf accuracy    <       0.00040384 Ry

     iteration #  3     ecut=    60.00 Ry     beta= 0.70
     Davidson diagonalization with overlap
     ethr =  1.35E-05,  avg # of iterations =  3.3

     total cpu time spent up to now is        3.8 secs

     total energy              =      -5.03847246 Ry
     estimated scf accuracy    <       0.00000122 Ry

     iteration #  4     ecut=    60.00 Ry     beta= 0.70
     Davidson diagonalization with overlap
     ethr =  4.08E-08,  avg # of iterations =  3.3

     total cpu time spent up to now is        4.5 secs

     total energy              =      -5.03847427 Ry
     estimated scf accuracy    <       0.00000003 Ry

     iteration #  5     ecut=    60.00 Ry     beta= 0.70
     Davidson diagonalization with overlap
     ethr =  8.73E-10,  avg # of iterations =  2.0

     total cpu time spent up to now is        5.1 secs

     total energy              =      -5.03847429 Ry
     estimated scf accuracy    <       0.00000002 Ry

     iteration #  6     ecut=    60.00 Ry     beta= 0.70
     Davidson diagonalization with overlap
     ethr =  6.83E-10,  avg # of iterations =  1.1

     total cpu time spent up to now is        5.7 secs

     End of self-consistent calculation

          k = 0.0000 0.0000 0.0000 (   893 PWs)   bands (ev):

    -3.2535  20.4193  20.4193  21.8450  21.8450  21.8450

          k = 0.0884 0.0884-0.0884 (   893 PWs)   bands (ev):

    -2.8310  16.1235  19.4616  19.4616  22.4808  23.3908

          k = 0.1768 0.1768-0.1768 (   890 PWs)   bands (ev):

    -1.5709  11.2669  18.6942  18.6942  22.1288  22.5200

          k = 0.2652 0.2652-0.2652 (   878 PWs)   bands (ev):

     0.5055   6.9762  18.6019  18.6019  20.5428  20.5428

          k =-0.3536-0.3536 0.3536 (   886 PWs)   bands (ev):

     3.2674   3.4710  19.1679  19.1679  19.2689  19.2689

          k = 0.1768 0.0000 0.0000 (   889 PWs)   bands (ev):

    -2.6905  17.7055  17.7055  17.9734  20.6988  22.4160

          k = 0.2652 0.0884-0.0884 (   885 PWs)   bands (ev):

    -1.7104  13.1228  16.6428  18.1636  19.3882  21.9075

          k = 0.3536 0.1768-0.1768 (   876 PWs)   bands (ev):

     0.0923   8.6709  16.2952  17.0233  17.9972  23.9992

          k =-0.2652-0.4419 0.4419 (   883 PWs)   bands (ev):

     2.6850   4.8508  15.4002  16.6665  18.4347  22.4921

          k =-0.1768-0.3536 0.3536 (   873 PWs)   bands (ev):

     1.7367   6.0422  14.5211  17.7572  19.6143  21.6529

          k =-0.0884-0.2652 0.2652 (   877 PWs)   bands (ev):

    -0.5983  10.0685  14.4214  19.5469  21.4942  21.5028

          k = 0.0000-0.1768 0.1768 (   887 PWs)   bands (ev):

    -2.1296  14.2686  15.4950  21.5117  21.7931  23.1354

          k = 0.3536 0.0000 0.0000 (   881 PWs)   bands (ev):

    -1.0145  15.3121  15.3196  15.3196  16.0662  18.7742

          k = 0.4419 0.0884-0.0884 (   876 PWs)   bands (ev):

     0.5039  11.0532  13.4016  14.7226  16.1941  20.1906

          k =-0.1768-0.5303 0.5303 (   875 PWs)   bands (ev):

     2.8146   7.0875  11.4805  14.8489  16.5345  23.8514

          k =-0.0884-0.4419 0.4419 (   871 PWs)   bands (ev):

     3.7607   5.8701  10.3599  15.6986  17.5215  25.4013

          k = 0.0000-0.3536 0.3536 (   883 PWs)   bands (ev):

     1.1905   9.0794  10.5729  17.2713  19.2315  24.7490

          k = 0.5303 0.0000 0.0000 (   870 PWs)   bands (ev):

     1.7297  10.4168  13.6594  13.8799  13.8799  17.3491

          k =-0.0884-0.6187 0.6187 (   877 PWs)   bands (ev):

     3.7258   8.2113  10.0431  13.7618  15.1331  19.2556

          k = 0.0000-0.5303 0.5303 (   874 PWs)   bands (ev):

     5.9636   6.4898   7.4326  14.3672  16.0111  23.4377

          k =-0.7071 0.0000 0.0000 (   894 PWs)   bands (ev):

     4.9279   6.2424  13.1040  13.4002  13.4002  16.8408

          k = 0.3536 0.1768 0.0000 (   880 PWs)   bands (ev):

    -0.4601  11.6803  13.0687  16.5797  19.9352  21.6806

          k =-0.2652-0.4419 0.6187 (   876 PWs)   bands (ev):

     1.5991   7.9755  12.3981  14.4493  20.5519  22.6298

          k =-0.1768-0.3536 0.5303 (   882 PWs)   bands (ev):

     4.3113   4.5591  12.8000  13.2524  21.0694  21.5090

          k =-0.1768-0.5303 0.7071 (   880 PWs)   bands (ev):

     2.2733  10.1208  10.8313  11.7022  18.4472  20.4335

          k =-0.0884-0.4419 0.6187 (   884 PWs)   bands (ev):

     4.7896   6.9151   9.2904  11.4404  19.6226  23.7358

          k = 0.0000-0.3536 0.5303 (   885 PWs)   bands (ev):

     3.8910   7.5204   8.9802  12.5439  20.8317  24.0662

          k =-0.7071 0.1768 0.0000 (   876 PWs)   bands (ev):

     5.4456   6.7825   9.6005  11.0923  17.9399  19.9801

          k =-0.7071 0.3536 0.0000 (   876 PWs)   bands (ev):

     7.0012   7.0012   8.0211   8.9110  23.5947  24.1024

     the Fermi energy is     7.8015 ev

!    total energy              =      -5.03847429 Ry
     estimated scf accuracy    <          5.7E-10 Ry
     smearing contrib. (-TS)   =       0.00005945 Ry
     internal energy E=F+TS    =      -5.03853374 Ry

     The total energy is F=E-TS. E is the sum of the following terms:
     one-electron contribution =       2.93426247 Ry
     hartree contribution      =       0.00646951 Ry
     xc contribution           =      -2.58770011 Ry
     ewald contribution        =      -5.39156561 Ry

     convergence has been achieved in   6 iterations

     Forces acting on atoms (cartesian axes, Ry/au):

     atom    1 type  1   force =     0.00000000    0.00000000    0.00000000

     Total force =     0.000000     Total SCF correction =     0.000000


     Computing stress (Cartesian axis) and pressure

          total   stress  (Ry/bohr**3)                   (kbar)     P=       -4.91
  -0.00003336  -0.00000000  -0.00000000           -4.91       -0.00       -0.00
  -0.00000000  -0.00003336  -0.00000000           -0.00       -4.91       -0.00
  -0.00000000  -0.00000000  -0.00003336           -0.00       -0.00       -4.91


     Writing output data file qe_tmp/conv_cutoff_al_ecut60.save/

     init_run     :      0.55s CPU      0.56s WALL (       1 calls)
     electrons    :      4.14s CPU      4.94s WALL (       1 calls)
     forces       :      0.09s CPU      0.09s WALL (       1 calls)
     stress       :      0.35s CPU      0.35s WALL (       1 calls)

     Called by init_run:
     wfcinit      :      0.16s CPU      0.16s WALL (       1 calls)
     potinit      :      0.06s CPU      0.07s WALL (       1 calls)
     hinit0       :      0.29s CPU      0.29s WALL (       1 calls)

     Called by electrons:
     c_bands      :      3.18s CPU      3.91s WALL (       7 calls)
     sum_band     :      0.60s CPU      0.61s WALL (       7 calls)
     v_of_rho     :      0.30s CPU      0.30s WALL (       7 calls)
     newd         :      0.08s CPU      0.08s WALL (       7 calls)
     mix_rho      :      0.02s CPU      0.03s WALL (       7 calls)

     Called by c_bands:
     init_us_2    :      0.12s CPU      0.12s WALL (     493 calls)
     cegterg      :      2.96s CPU      2.98s WALL (     203 calls)

     Called by *egterg:
     cdiaghg      :      0.05s CPU      0.06s WALL (     742 calls)
     h_psi        :      2.51s CPU      2.53s WALL (     800 calls)
     s_psi        :      0.07s CPU      0.07s WALL (     800 calls)
     g_psi        :      0.06s CPU      0.06s WALL (     568 calls)

     Called by h_psi:
     h_psi:calbec :      0.06s CPU      0.06s WALL (     800 calls)
     vloc_psi     :      2.37s CPU      2.38s WALL (     800 calls)
     add_vuspsi   :      0.07s CPU      0.07s WALL (     800 calls)

     General routines
     calbec       :      0.10s CPU      0.10s WALL (    1148 calls)
     fft          :      0.19s CPU      0.19s WALL (     115 calls)
     ffts         :      0.01s CPU      0.01s WALL (      14 calls)
     fftw         :      2.51s CPU      2.53s WALL (    7950 calls)
     interpolate  :      0.02s CPU      0.02s WALL (       7 calls)

     Parallel routines

     PWSCF        :      5.25s CPU      6.80s WALL


   This run was terminated on:  10: 6:15  14Jul2026            

=------------------------------------------------------------------------------=
   JOB DONE.
=------------------------------------------------------------------------------=
