
     Program PWSCF v.6.7MaX starts on 14Jul2026 at 10:35:51 

     This program is part of the open-source Quantum ESPRESSO suite
     for quantum simulation of materials; please cite
         "P. Giannozzi et al., J. Phys.:Condens. Matter 21 395502 (2009);
         "P. Giannozzi et al., J. Phys.:Condens. Matter 29 465901 (2017);
          URL http://www.quantum-espresso.org", 
     in publications or presentations arising from this work. More details at
     http://www.quantum-espresso.org/quote

     Parallel version (MPI), running on     1 processors

     MPI processes distributed on     1 nodes
     Waiting for input...
     Reading input from standard input
Warning: card &FCP ignored
Warning: card / ignored
Warning: card &RISM ignored
Warning: card / ignored

     Current dimensions of program PWSCF are:
     Max number of different atomic species (ntypx) = 10
     Max number of k-points (npk) =  40000
     Max angular momentum in pseudopotentials (lmaxx) =  3
     Message from routine read_pp_mesh:
     mesh size missing, using the one in header

     IMPORTANT: XC functional enforced from input :
     Exchange-correlation= PBE
                           (   1   4   3   4   0   0   0)
     Any further DFT definition will be discarded
     Please, verify this is what you really want


     Subspace diagonalization in iterative solution of the eigenvalue problem:
     a serial algorithm will be used

     Message from routine setup:
     using ibrav=0 with symmetry is DISCOURAGED, use correct ibrav instead

     G-vector sticks info
     --------------------
     sticks:   dense  smooth     PW     G-vecs:    dense   smooth      PW
     Sum        1027     511    151                42381    15003    2539



     bravais-lattice index     =            0
     lattice parameter (alat)  =       6.0660  a.u.
     unit-cell volume          =     313.7437 (a.u.)^3
     number of atoms/cell      =            2
     number of atomic types    =            1
     number of electrons       =        20.00
     number of Kohn-Sham states=           14
     kinetic-energy cutoff     =      50.0000  Ry
     charge density cutoff     =     400.0000  Ry
     scf convergence threshold =      1.0E-08
     mixing beta               =       0.7000
     number of iterations used =            8  plain     mixing
     energy convergence thresh.=      1.0E-04
     force convergence thresh. =      1.0E-03
     press convergence thresh. =      5.0E-01
     Exchange-correlation= PBE
                           (   1   4   3   4   0   0   0)
     nstep                     =           50


     celldm(1)=   6.066021  celldm(2)=   0.000000  celldm(3)=   0.000000
     celldm(4)=   0.000000  celldm(5)=   0.000000  celldm(6)=   0.000000

     crystal axes: (cart. coord. in units of alat)
               a(1) = (   1.000000   0.000000   0.000000 )  
               a(2) = (  -0.500000   0.866025   0.000000 )  
               a(3) = (   0.000000   0.000000   1.623053 )  

     reciprocal axes: (cart. coord. in units 2 pi/alat)
               b(1) = (  1.000000  0.577350 -0.000000 )  
               b(2) = (  0.000000  1.154701  0.000000 )  
               b(3) = (  0.000000 -0.000000  0.616123 )  


     PseudoPot. # 1 for Mg read from file:
     ../../../pseudos/Mg.us.pbe.z_10.uspp.gbrv.v1.4.upf
     MD5 check sum: 6ff864fbc24a44e5dee236984f6edeb4
     Pseudo is Ultrasoft, Zval = 10.0
     
     Using radial grid of  821 points,  7 beta functions with: 
                l(1) =   0
                l(2) =   0
                l(3) =   0
                l(4) =   1
                l(5) =   1
                l(6) =   2
                l(7) =   2
     Q(r) pseudized with 0 coefficients 


     atomic species   valence    mass     pseudopotential
        Mg            10.00    24.30500     Mg( 1.00)

     24 Sym. Ops., with inversion, found (12 have fractional translation)



   Cartesian axes

     site n.     atom                  positions (alat units)
         1           Mg  tau(   1) = (   0.0000000   0.0000000   0.0000000  )
         2           Mg  tau(   2) = (  -0.0000000   0.5773503   0.8115265  )

     number of k points=    50  Marzari-Vanderbilt smearing, width (Ry)=  0.0200
                       cart. coord. in units 2pi/alat
        k(    1) = (   0.0000000   0.0000000   0.0000000), wk =   0.0039062
        k(    2) = (   0.0000000   0.0000000   0.0770154), wk =   0.0078125
        k(    3) = (   0.0000000   0.0000000   0.1540307), wk =   0.0078125
        k(    4) = (   0.0000000   0.0000000   0.2310461), wk =   0.0078125
        k(    5) = (   0.0000000   0.0000000  -0.3080614), wk =   0.0039062
        k(    6) = (   0.0000000   0.1443376   0.0000000), wk =   0.0234375
        k(    7) = (   0.0000000   0.1443376   0.0770154), wk =   0.0468750
        k(    8) = (   0.0000000   0.1443376   0.1540307), wk =   0.0468750
        k(    9) = (   0.0000000   0.1443376   0.2310461), wk =   0.0468750
        k(   10) = (   0.0000000   0.1443376  -0.3080614), wk =   0.0234375
        k(   11) = (   0.0000000   0.2886751   0.0000000), wk =   0.0234375
        k(   12) = (   0.0000000   0.2886751   0.0770154), wk =   0.0468750
        k(   13) = (   0.0000000   0.2886751   0.1540307), wk =   0.0468750
        k(   14) = (   0.0000000   0.2886751   0.2310461), wk =   0.0468750
        k(   15) = (   0.0000000   0.2886751  -0.3080614), wk =   0.0234375
        k(   16) = (   0.0000000   0.4330127   0.0000000), wk =   0.0234375
        k(   17) = (   0.0000000   0.4330127   0.0770154), wk =   0.0468750
        k(   18) = (   0.0000000   0.4330127   0.1540307), wk =   0.0468750
        k(   19) = (   0.0000000   0.4330127   0.2310461), wk =   0.0468750
        k(   20) = (   0.0000000   0.4330127  -0.3080614), wk =   0.0234375
        k(   21) = (   0.0000000  -0.5773503   0.0000000), wk =   0.0117188
        k(   22) = (   0.0000000  -0.5773503   0.0770154), wk =   0.0234375
        k(   23) = (   0.0000000  -0.5773503   0.1540307), wk =   0.0234375
        k(   24) = (   0.0000000  -0.5773503   0.2310461), wk =   0.0234375
        k(   25) = (   0.0000000  -0.5773503  -0.3080614), wk =   0.0117188
        k(   26) = (   0.1250000   0.2165064   0.0000000), wk =   0.0234375
        k(   27) = (   0.1250000   0.2165064   0.0770154), wk =   0.0468750
        k(   28) = (   0.1250000   0.2165064   0.1540307), wk =   0.0468750
        k(   29) = (   0.1250000   0.2165064   0.2310461), wk =   0.0468750
        k(   30) = (   0.1250000   0.2165064  -0.3080614), wk =   0.0234375
        k(   31) = (   0.1250000   0.3608439   0.0000000), wk =   0.0468750
        k(   32) = (   0.1250000   0.3608439   0.0770154), wk =   0.0937500
        k(   33) = (   0.1250000   0.3608439   0.1540307), wk =   0.0937500
        k(   34) = (   0.1250000   0.3608439   0.2310461), wk =   0.0937500
        k(   35) = (   0.1250000   0.3608439  -0.3080614), wk =   0.0468750
        k(   36) = (   0.1250000   0.5051815   0.0000000), wk =   0.0468750
        k(   37) = (   0.1250000   0.5051815   0.0770154), wk =   0.0937500
        k(   38) = (   0.1250000   0.5051815   0.1540307), wk =   0.0937500
        k(   39) = (   0.1250000   0.5051815   0.2310461), wk =   0.0937500
        k(   40) = (   0.1250000   0.5051815  -0.3080614), wk =   0.0468750
        k(   41) = (   0.2500000   0.4330127   0.0000000), wk =   0.0234375
        k(   42) = (   0.2500000   0.4330127   0.0770154), wk =   0.0468750
        k(   43) = (   0.2500000   0.4330127   0.1540307), wk =   0.0468750
        k(   44) = (   0.2500000   0.4330127   0.2310461), wk =   0.0468750
        k(   45) = (   0.2500000   0.4330127  -0.3080614), wk =   0.0234375
        k(   46) = (   0.2500000   0.5773503   0.0000000), wk =   0.0234375
        k(   47) = (   0.2500000   0.5773503   0.0770154), wk =   0.0468750
        k(   48) = (   0.2500000   0.5773503   0.1540307), wk =   0.0468750
        k(   49) = (   0.2500000   0.5773503   0.2310461), wk =   0.0468750
        k(   50) = (   0.2500000   0.5773503  -0.3080614), wk =   0.0234375

     Dense  grid:    42381 G-vectors     FFT dimensions: (  45,  45,  64)

     Smooth grid:    15003 G-vectors     FFT dimensions: (  27,  27,  48)

     Estimated max dynamical RAM per process >     194.36 MB

     Initial potential from superposition of free atoms

     starting charge   19.39954, renormalised to   20.00000
     Starting wfcs are   10 randomized atomic wfcs +    4 random wfcs

     total cpu time spent up to now is       11.5 secs

     Self-consistent Calculation

     iteration #  1     ecut=    50.00 Ry     beta= 0.70
     Davidson diagonalization with overlap
     ethr =  1.00E-02,  avg # of iterations =  6.9

     total cpu time spent up to now is       34.3 secs

     total energy              =    -250.58263725 Ry
     estimated scf accuracy    <       0.29490140 Ry

     iteration #  2     ecut=    50.00 Ry     beta= 0.70
     Davidson diagonalization with overlap
     ethr =  1.47E-03,  avg # of iterations =  2.1

     total cpu time spent up to now is       49.4 secs

     total energy              =    -250.64912339 Ry
     estimated scf accuracy    <       0.00967457 Ry

     iteration #  3     ecut=    50.00 Ry     beta= 0.70
     Davidson diagonalization with overlap
     ethr =  4.84E-05,  avg # of iterations =  3.6

     total cpu time spent up to now is       63.7 secs

     total energy              =    -250.64964263 Ry
     estimated scf accuracy    <       0.00047667 Ry

     iteration #  4     ecut=    50.00 Ry     beta= 0.70
     Davidson diagonalization with overlap
     ethr =  2.38E-06,  avg # of iterations =  4.0

     total cpu time spent up to now is       81.3 secs

     total energy              =    -250.64966133 Ry
     estimated scf accuracy    <       0.00000329 Ry

     iteration #  5     ecut=    50.00 Ry     beta= 0.70
     Davidson diagonalization with overlap
     ethr =  1.64E-08,  avg # of iterations =  2.1

     total cpu time spent up to now is       91.9 secs

     total energy              =    -250.64966280 Ry
     estimated scf accuracy    <       0.00000065 Ry

     iteration #  6     ecut=    50.00 Ry     beta= 0.70
     Davidson diagonalization with overlap
     ethr =  3.25E-09,  avg # of iterations =  2.0

     total cpu time spent up to now is      101.1 secs

     total energy              =    -250.64966296 Ry
     estimated scf accuracy    <       0.00000002 Ry

     iteration #  7     ecut=    50.00 Ry     beta= 0.70
     Davidson diagonalization with overlap
     ethr =  8.81E-11,  avg # of iterations =  2.0

     total cpu time spent up to now is      110.1 secs

     End of self-consistent calculation

          k = 0.0000 0.0000 0.0000 (  1835 PWs)   bands (ev):

   -70.7220 -70.7192 -37.5091 -37.4798 -37.4798 -37.4783 -37.4752 -37.4752
    -1.5675   3.6536   4.0707  16.1748  16.1748  16.2737

          k = 0.0000 0.0000 0.0770 (  1864 PWs)   bands (ev):

   -70.7219 -70.7193 -37.5079 -37.4797 -37.4797 -37.4795 -37.4754 -37.4754
    -1.4804   2.5988   5.2762  16.1583  16.2442  16.2446

          k = 0.0000 0.0000 0.1540 (  1870 PWs)   bands (ev):

   -70.7216 -70.7196 -37.5046 -37.4829 -37.4792 -37.4792 -37.4759 -37.4759
    -1.2196   1.5148   6.8119  14.2593  16.4434  16.4434

          k = 0.0000 0.0000 0.2310 (  1876 PWs)   bands (ev):

   -70.7211 -70.7201 -37.4996 -37.4879 -37.4784 -37.4784 -37.4767 -37.4767
    -0.7867   0.5845   8.4940  12.2470  16.7380  16.7541

          k = 0.0000 0.0000-0.3081 (  1870 PWs)   bands (ev):

   -70.7206 -70.7206 -37.4938 -37.4938 -37.4775 -37.4775 -37.4775 -37.4775
    -0.1842  -0.1842  10.3110  10.3110  16.9181  16.9181

          k = 0.0000 0.1443 0.0000 (  1850 PWs)   bands (ev):

   -70.7216 -70.7190 -37.5076 -37.4831 -37.4809 -37.4790 -37.4785 -37.4758
    -1.2621   3.9320   4.3668  12.6363  14.4301  15.1841

          k = 0.0000 0.1443 0.0770 (  1862 PWs)   bands (ev):

   -70.7215 -70.7191 -37.5066 -37.4828 -37.4808 -37.4807 -37.4780 -37.4760
    -1.1752   2.8892   5.5589  12.7068  14.5024  15.1527

          k = 0.0000 0.1443 0.1540 (  1869 PWs)   bands (ev):

   -70.7213 -70.7194 -37.5037 -37.4843 -37.4821 -37.4802 -37.4782 -37.4765
    -0.9153   1.8096   7.0856  12.8990  14.5042  14.7192

          k = 0.0000 0.1443 0.2310 (  1867 PWs)   bands (ev):

   -70.7208 -70.7198 -37.4993 -37.4889 -37.4812 -37.4793 -37.4789 -37.4774
    -0.4839   0.8826   8.7547  12.3921  13.4268  14.4315

          k = 0.0000 0.1443-0.3081 (  1868 PWs)   bands (ev):

   -70.7203 -70.7203 -37.4942 -37.4942 -37.4800 -37.4800 -37.4783 -37.4783
     0.1165   0.1165  10.5475  10.5475  13.8554  13.8554

          k = 0.0000 0.2887 0.0000 (  1870 PWs)   bands (ev):

   -70.7208 -70.7187 -37.5037 -37.4909 -37.4866 -37.4834 -37.4809 -37.4773
    -0.3521   4.7683   5.2218   9.0798  13.1472  13.2760

          k = 0.0000 0.2887 0.0770 (  1871 PWs)   bands (ev):

   -70.7207 -70.7188 -37.5033 -37.4904 -37.4875 -37.4832 -37.4809 -37.4775
    -0.2662   3.7522   6.3742   9.1686  12.6325  13.2202

          k = 0.0000 0.2887 0.1540 (  1872 PWs)   bands (ev):

   -70.7205 -70.7190 -37.5019 -37.4905 -37.4885 -37.4825 -37.4813 -37.4782
    -0.0089   2.6870   7.8278   9.4503  11.7417  13.4394

          k = 0.0000 0.2887 0.2310 (  1878 PWs)   bands (ev):

   -70.7201 -70.7193 -37.4997 -37.4935 -37.4865 -37.4825 -37.4815 -37.4792
     0.4181   1.7704   9.2154  10.0506  10.9496  13.2418

          k = 0.0000 0.2887-0.3081 (  1882 PWs)   bands (ev):

   -70.7197 -70.7197 -37.4968 -37.4968 -37.4844 -37.4844 -37.4803 -37.4803
     1.0124   1.0124  10.0797  10.0797  11.5734  11.5734

          k = 0.0000 0.4330 0.0000 (  1880 PWs)   bands (ev):

   -70.7198 -70.7184 -37.4989 -37.4988 -37.4944 -37.4858 -37.4839 -37.4789
     1.1437   5.5966   6.1647   7.0233  10.6811  11.0344

          k = 0.0000 0.4330 0.0770 (  1879 PWs)   bands (ev):

   -70.7197 -70.7185 -37.5014 -37.4962 -37.4948 -37.4855 -37.4837 -37.4791
     1.2282   5.0787   5.9730   7.9458   9.7474  12.0153

          k = 0.0000 0.4330 0.1540 (  1884 PWs)   bands (ev):

   -70.7196 -70.7186 -37.5029 -37.4978 -37.4918 -37.4848 -37.4836 -37.4799
     1.4809   4.1074   6.1763   8.6610   9.4718  12.6714

          k = 0.0000 0.4330 0.2310 (  1869 PWs)   bands (ev):

   -70.7194 -70.7189 -37.5031 -37.5002 -37.4885 -37.4842 -37.4836 -37.4810
     1.9002   3.2228   6.5732   7.8440  10.9969  13.0369

          k = 0.0000 0.4330-0.3081 (  1876 PWs)   bands (ev):

   -70.7191 -70.7191 -37.5021 -37.5021 -37.4859 -37.4859 -37.4823 -37.4823
     2.4827   2.4827   7.1327   7.1327  12.5815  12.5815

          k = 0.0000-0.5774 0.0000 (  1890 PWs)   bands (ev):

   -70.7193 -70.7184 -37.5022 -37.4977 -37.4960 -37.4868 -37.4859 -37.4795
     3.1896   3.1940   7.9533   8.3252   8.5578   8.9698

          k = 0.0000-0.5774 0.0770 (  1890 PWs)   bands (ev):

   -70.7193 -70.7184 -37.5033 -37.4986 -37.4943 -37.4865 -37.4855 -37.4798
     3.2718   3.2734   7.1970   7.2347   9.7970   9.8318

          k = 0.0000-0.5774 0.1540 (  1880 PWs)   bands (ev):

   -70.7192 -70.7185 -37.5048 -37.5009 -37.4912 -37.4857 -37.4849 -37.4806
     3.5093   3.5155   6.1965   6.2169  11.1067  11.2680

          k = 0.0000-0.5774 0.2310 (  1874 PWs)   bands (ev):

   -70.7190 -70.7187 -37.5054 -37.5032 -37.4882 -37.4849 -37.4845 -37.4818
     3.8862   3.9016   5.3380   5.3686  12.3611  12.7497

          k = 0.0000-0.5774-0.3081 (  1876 PWs)   bands (ev):

   -70.7189 -70.7189 -37.5049 -37.5049 -37.4860 -37.4860 -37.4831 -37.4831
     4.2273   4.2273   4.8616   4.8616  13.2987  13.2989

          k = 0.1250 0.2165 0.0000 (  1863 PWs)   bands (ev):

   -70.7210 -70.7188 -37.5050 -37.4877 -37.4856 -37.4815 -37.4803 -37.4775
    -0.6543   4.4894   4.9453  10.8322  11.1643  15.3927

          k = 0.1250 0.2165 0.0770 (  1865 PWs)   bands (ev):

   -70.7209 -70.7189 -37.5043 -37.4873 -37.4861 -37.4823 -37.4798 -37.4777
    -0.5681   3.4662   6.1129  10.9049  11.2383  14.7056

          k = 0.1250 0.2165 0.1540 (  1871 PWs)   bands (ev):

   -70.7207 -70.7191 -37.5023 -37.4882 -37.4863 -37.4828 -37.4798 -37.4783
    -0.3100   2.3958   7.6127  11.1176  11.4512  13.6847

          k = 0.1250 0.2165 0.2310 (  1880 PWs)   bands (ev):

   -70.7203 -70.7195 -37.4993 -37.4917 -37.4848 -37.4827 -37.4801 -37.4792
     0.1185   1.4756   9.2319  11.4377  11.7429  12.5024

          k = 0.1250 0.2165-0.3081 (  1880 PWs)   bands (ev):

   -70.7199 -70.7199 -37.4956 -37.4956 -37.4833 -37.4833 -37.4800 -37.4800
     0.7148   0.7148  10.8990  10.8990  11.8126  11.8126

          k = 0.1250 0.3608 0.0000 (  1869 PWs)   bands (ev):

   -70.7201 -70.7185 -37.5005 -37.4949 -37.4921 -37.4852 -37.4828 -37.4799
     0.5485   5.6061   5.9661   7.7528   9.8755  12.3461

          k = 0.1250 0.3608 0.0770 (  1868 PWs)   bands (ev):

   -70.7200 -70.7186 -37.5009 -37.4941 -37.4923 -37.4856 -37.4824 -37.4801
     0.6335   4.5973   6.9907   7.9470   9.9240  11.6249

          k = 0.1250 0.3608 0.1540 (  1865 PWs)   bands (ev):

   -70.7199 -70.7187 -37.5013 -37.4951 -37.4906 -37.4857 -37.4821 -37.4805
     0.8881   3.5515   7.7301   8.8538   9.9166  10.9598

          k = 0.1250 0.3608 0.2310 (  1873 PWs)   bands (ev):

   -70.7196 -70.7190 -37.5009 -37.4973 -37.4881 -37.4855 -37.4824 -37.4812
     1.3107   2.6476   8.2090   9.4113  10.0929  11.1675

          k = 0.1250 0.3608-0.3081 (  1880 PWs)   bands (ev):

   -70.7193 -70.7193 -37.4995 -37.4995 -37.4862 -37.4862 -37.4821 -37.4821
     1.8985   1.8985   8.7669   8.7669  10.9520  10.9520

          k = 0.1250 0.5052 0.0000 (  1880 PWs)   bands (ev):

   -70.7193 -70.7184 -37.5004 -37.4961 -37.4961 -37.4881 -37.4859 -37.4815
     2.3217   4.6080   7.2788   7.8312   9.1339   9.5594

          k = 0.1250 0.5052 0.0770 (  1876 PWs)   bands (ev):

   -70.7193 -70.7184 -37.5016 -37.4973 -37.4942 -37.4879 -37.4855 -37.4816
     2.4047   4.6735   6.3956   8.4919   8.7183   9.8692

          k = 0.1250 0.5052 0.1540 (  1881 PWs)   bands (ev):

   -70.7192 -70.7185 -37.5032 -37.4995 -37.4916 -37.4870 -37.4850 -37.4818
     2.6528   4.7828   5.5131   7.5638   9.4500  10.7865

          k = 0.1250 0.5052 0.2310 (  1874 PWs)   bands (ev):

   -70.7190 -70.7187 -37.5038 -37.5017 -37.4894 -37.4865 -37.4844 -37.4822
     3.0632   4.3143   5.5011   6.7182   9.9635  11.1655

          k = 0.1250 0.5052-0.3081 (  1870 PWs)   bands (ev):

   -70.7189 -70.7189 -37.5033 -37.5033 -37.4876 -37.4876 -37.4831 -37.4831
     3.6278   3.6278   6.0158   6.0158  10.5383  10.5383

          k = 0.2500 0.4330 0.0000 (  1871 PWs)   bands (ev):

   -70.7193 -70.7184 -37.4973 -37.4961 -37.4956 -37.4888 -37.4859 -37.4844
     2.0290   6.3068   6.6048   7.0026   8.1762  11.2504

          k = 0.2500 0.4330 0.0770 (  1878 PWs)   bands (ev):

   -70.7193 -70.7184 -37.4987 -37.4976 -37.4926 -37.4899 -37.4846 -37.4846
     2.1125   5.8334   6.6816   6.9131   8.8925  10.6616

          k = 0.2500 0.4330 0.1540 (  1875 PWs)   bands (ev):

   -70.7192 -70.7185 -37.5007 -37.4986 -37.4908 -37.4899 -37.4849 -37.4831
     2.3622   4.9314   6.9085   7.0912   9.3672   9.7527

          k = 0.2500 0.4330 0.2310 (  1873 PWs)   bands (ev):

   -70.7190 -70.7187 -37.5016 -37.5002 -37.4905 -37.4889 -37.4843 -37.4826
     2.7760   4.0752   7.2659   7.4249   8.7471   8.9448

          k = 0.2500 0.4330-0.3081 (  1864 PWs)   bands (ev):

   -70.7189 -70.7189 -37.5013 -37.5013 -37.4896 -37.4896 -37.4831 -37.4831
     3.3497   3.3497   7.6101   7.6101   8.4374   8.4374

          k = 0.2500 0.5774 0.0000 (  1873 PWs)   bands (ev):

   -70.7189 -70.7185 -37.4987 -37.4942 -37.4928 -37.4923 -37.4886 -37.4867
     4.0484   4.0604   6.2721   8.7747   9.1607   9.2916

          k = 0.2500 0.5774 0.0770 (  1875 PWs)   bands (ev):

   -70.7189 -70.7185 -37.4992 -37.4957 -37.4944 -37.4895 -37.4883 -37.4860
     4.1271   4.1397   6.3185   8.0700   8.2309  10.0449

          k = 0.2500 0.5774 0.1540 (  1874 PWs)   bands (ev):

   -70.7188 -70.7185 -37.5006 -37.4983 -37.4945 -37.4889 -37.4866 -37.4844
     4.3605   4.3733   6.3638   7.0445   7.5170   9.3521

          k = 0.2500 0.5774 0.2310 (  1880 PWs)   bands (ev):

   -70.7188 -70.7186 -37.5016 -37.5005 -37.4934 -37.4903 -37.4844 -37.4832
     4.7300   4.7379   6.0450   6.1937   7.4202   8.5337

          k = 0.2500 0.5774-0.3081 (  1878 PWs)   bands (ev):

   -70.7187 -70.7187 -37.5016 -37.5016 -37.4918 -37.4918 -37.4832 -37.4832
     5.0416   5.0416   5.6984   5.6984   7.8600   7.8600

     the Fermi energy is     5.3050 ev

!    total energy              =    -250.64966296 Ry
     estimated scf accuracy    <          1.5E-10 Ry
     smearing contrib. (-TS)   =       0.00041550 Ry
     internal energy E=F+TS    =    -250.65007846 Ry

     The total energy is F=E-TS. E is the sum of the following terms:
     one-electron contribution =    -210.36375185 Ry
     hartree contribution      =     100.56688371 Ry
     xc contribution           =     -33.75046685 Ry
     ewald contribution        =    -107.10274346 Ry

     convergence has been achieved in   7 iterations

     Forces acting on atoms (cartesian axes, Ry/au):

     atom    1 type  1   force =     0.00000000   -0.00000000    0.00000000
     atom    2 type  1   force =     0.00000000   -0.00000000    0.00000000

     Total force =     0.000000     Total SCF correction =     0.000000


     Computing stress (Cartesian axis) and pressure

          total   stress  (Ry/bohr**3)                   (kbar)     P=       -6.65
  -0.00003486  -0.00000000  -0.00000000           -5.13       -0.00       -0.00
  -0.00000000  -0.00003486   0.00000000           -0.00       -5.13        0.00
  -0.00000000   0.00000000  -0.00006580           -0.00        0.00       -9.68


     BFGS Geometry Optimization
     Energy error            =      0.0E+00
     Gradient error          =      1.6E-27
     Cell gradient error     =      6.6E-05


     number of scf cycles    =   1
     number of bfgs steps    =   0

     enthalpy new            =    -250.6496629585 Ry

     new trust radius        =       0.0058278944 bohr
     new conv_thr            =       0.0000000100 Ry

     new unit-cell volume =    312.68182 a.u.^3 (    46.33466 Ang^3 )
     density =      1.74208 g/cm^3

CELL_PARAMETERS (angstrom)
   3.207202341  -0.000000000  -0.000000000
  -1.603601170   2.777518702   0.000000000
  -0.000000000   0.000000000   5.201428992

ATOMIC_POSITIONS (angstrom)
Mg            0.0000000000       -0.0000000000       -0.0000000000
Mg           -0.0000000000        1.8516791348        2.6007144961



     Writing output data file qe_tmp/ref_Mg_hcp.save/
     NEW-OLD atomic charge density approx. for the potential
     extrapolated charge   19.93412, renormalised to   20.00000

     total cpu time spent up to now is      119.3 secs

     Self-consistent Calculation

     iteration #  1     ecut=    50.00 Ry     beta= 0.70
     Davidson diagonalization with overlap
     ethr =  1.00E-06,  avg # of iterations =  3.0

     total cpu time spent up to now is      127.7 secs

     total energy              =    -250.64883949 Ry
     estimated scf accuracy    <       0.00043128 Ry

     iteration #  2     ecut=    50.00 Ry     beta= 0.70
     Davidson diagonalization with overlap
     ethr =  2.16E-06,  avg # of iterations =  2.0

     total cpu time spent up to now is      134.9 secs

     total energy              =    -250.64973840 Ry
     estimated scf accuracy    <       0.00043478 Ry

     iteration #  3     ecut=    50.00 Ry     beta= 0.70
     Davidson diagonalization with overlap
     ethr =  2.16E-06,  avg # of iterations =  1.0

     total cpu time spent up to now is      140.2 secs

     total energy              =    -250.64970422 Ry
     estimated scf accuracy    <       0.00009441 Ry

     iteration #  4     ecut=    50.00 Ry     beta= 0.70
     Davidson diagonalization with overlap
     ethr =  4.72E-07,  avg # of iterations =  2.0

     total cpu time spent up to now is      147.2 secs

     total energy              =    -250.64970987 Ry
     estimated scf accuracy    <       0.00000767 Ry

     iteration #  5     ecut=    50.00 Ry     beta= 0.70
     Davidson diagonalization with overlap
     ethr =  3.84E-08,  avg # of iterations =  2.0

     total cpu time spent up to now is      153.5 secs

     total energy              =    -250.64971048 Ry
     estimated scf accuracy    <       0.00000055 Ry

     iteration #  6     ecut=    50.00 Ry     beta= 0.70
     Davidson diagonalization with overlap
     ethr =  2.77E-09,  avg # of iterations =  2.0

     total cpu time spent up to now is      160.2 secs

     total energy              =    -250.64971052 Ry
     estimated scf accuracy    <       0.00000005 Ry

     iteration #  7     ecut=    50.00 Ry     beta= 0.70
     Davidson diagonalization with overlap
     ethr =  2.35E-10,  avg # of iterations =  2.0

     total cpu time spent up to now is      165.6 secs

     End of self-consistent calculation

          k = 0.0000 0.0000 0.0000 (  1835 PWs)   bands (ev):

   -70.6896 -70.6867 -37.4770 -37.4474 -37.4474 -37.4458 -37.4427 -37.4427
    -1.5553   3.6788   4.1049  16.2131  16.2131  16.3169

          k = 0.0000-0.0000 0.0771 (  1864 PWs)   bands (ev):

   -70.6895 -70.6869 -37.4758 -37.4473 -37.4473 -37.4470 -37.4429 -37.4429
    -1.4678   2.6240   5.3107  16.2173  16.2825  16.2829

          k = 0.0000-0.0000 0.1543 (  1870 PWs)   bands (ev):

   -70.6892 -70.6872 -37.4725 -37.4504 -37.4468 -37.4468 -37.4434 -37.4434
    -1.2062   1.5369   6.8506  14.3180  16.4820  16.4820

          k = 0.0000-0.0000 0.2314 (  1876 PWs)   bands (ev):

   -70.6887 -70.6876 -37.4674 -37.4555 -37.4460 -37.4460 -37.4442 -37.4442
    -0.7718   0.6037   8.5376  12.3009  16.7772  16.7960

          k =-0.0000 0.0000-0.3086 (  1870 PWs)   bands (ev):

   -70.6882 -70.6882 -37.4615 -37.4615 -37.4451 -37.4451 -37.4451 -37.4451
    -0.1674  -0.1674  10.3596  10.3596  16.9575  16.9575

          k = 0.0000 0.1445-0.0000 (  1850 PWs)   bands (ev):

   -70.6892 -70.6866 -37.4755 -37.4507 -37.4485 -37.4464 -37.4461 -37.4433
    -1.2492   3.9575   4.4013  12.6719  14.4690  15.2229

          k = 0.0000 0.1445 0.0771 (  1862 PWs)   bands (ev):

   -70.6891 -70.6867 -37.4745 -37.4505 -37.4483 -37.4483 -37.4455 -37.4435
    -1.1621   2.9147   5.5938  12.7425  14.5415  15.1919

          k = 0.0000 0.1445 0.1543 (  1869 PWs)   bands (ev):

   -70.6888 -70.6870 -37.4716 -37.4518 -37.4498 -37.4478 -37.4457 -37.4441
    -0.9014   1.8321   7.1246  12.9359  14.5605  14.7587

          k = 0.0000 0.1445 0.2314 (  1867 PWs)   bands (ev):

   -70.6884 -70.6874 -37.4671 -37.4565 -37.4488 -37.4469 -37.4465 -37.4449
    -0.4685   0.9023   8.7983  12.4437  13.4655  14.4701

          k = 0.0000 0.1445-0.3086 (  1868 PWs)   bands (ev):

   -70.6879 -70.6879 -37.4619 -37.4619 -37.4476 -37.4476 -37.4459 -37.4459
     0.1338   0.1338  10.5959  10.5959  13.8936  13.8936

          k = 0.0000 0.2889-0.0000 (  1870 PWs)   bands (ev):

   -70.6883 -70.6862 -37.4716 -37.4586 -37.4542 -37.4510 -37.4484 -37.4448
    -0.3377   4.7950   5.2570   9.1107  13.1847  13.3124

          k = 0.0000 0.2889 0.0771 (  1871 PWs)   bands (ev):

   -70.6883 -70.6863 -37.4711 -37.4581 -37.4552 -37.4508 -37.4484 -37.4451
    -0.2515   3.7789   6.4094   9.1999  12.6697  13.2579

          k = 0.0000 0.2889 0.1543 (  1872 PWs)   bands (ev):

   -70.6880 -70.6865 -37.4697 -37.4582 -37.4561 -37.4501 -37.4488 -37.4457
     0.0066   2.7108   7.8657   9.4835  11.7778  13.4777

          k = 0.0000 0.2889 0.2314 (  1878 PWs)   bands (ev):

   -70.6877 -70.6869 -37.4675 -37.4612 -37.4542 -37.4500 -37.4491 -37.4468
     0.4350   1.7915   9.2514  10.0907  10.9843  13.2930

          k = 0.0000 0.2889-0.3086 (  1882 PWs)   bands (ev):

   -70.6873 -70.6873 -37.4645 -37.4645 -37.4519 -37.4519 -37.4479 -37.4479
     1.0311   1.0311  10.1132  10.1132  11.6218  11.6218

          k = 0.0000 0.4334-0.0000 (  1880 PWs)   bands (ev):

   -70.6874 -70.6860 -37.4667 -37.4666 -37.4622 -37.4535 -37.4514 -37.4464
     1.1606   5.6207   6.1933   7.0623  10.7158  11.0740

          k = 0.0000 0.4334 0.0771 (  1879 PWs)   bands (ev):

   -70.6873 -70.6860 -37.4692 -37.4639 -37.4625 -37.4532 -37.4512 -37.4467
     1.2453   5.1057   5.9989   7.9852   9.7820  12.0538

          k = 0.0000 0.4334 0.1543 (  1884 PWs)   bands (ev):

   -70.6872 -70.6862 -37.4707 -37.4656 -37.4595 -37.4524 -37.4511 -37.4475
     1.4988   4.1329   6.2021   8.6948   9.5127  12.7089

          k = 0.0000 0.4334 0.2314 (  1869 PWs)   bands (ev):

   -70.6869 -70.6864 -37.4710 -37.4680 -37.4561 -37.4517 -37.4513 -37.4486
     1.9194   3.2460   6.6000   7.8745  11.0421  13.0753

          k = 0.0000 0.4334-0.3086 (  1876 PWs)   bands (ev):

   -70.6867 -70.6867 -37.4700 -37.4700 -37.4535 -37.4535 -37.4499 -37.4499
     2.5037   2.5037   7.1611   7.1611  12.6280  12.6280

          k =-0.0000-0.5779 0.0000 (  1890 PWs)   bands (ev):

   -70.6869 -70.6859 -37.4700 -37.4654 -37.4637 -37.4545 -37.4535 -37.4471
     3.2106   3.2130   7.9860   8.3550   8.5995   9.0090

          k =-0.0000-0.5779 0.0771 (  1890 PWs)   bands (ev):

   -70.6868 -70.6860 -37.4712 -37.4664 -37.4620 -37.4542 -37.4531 -37.4474
     3.2927   3.2931   7.2293   7.2662   9.8373   9.8709

          k =-0.0000-0.5779 0.1543 (  1880 PWs)   bands (ev):

   -70.6867 -70.6861 -37.4727 -37.4687 -37.4588 -37.4534 -37.4524 -37.4482
     3.5292   3.5374   6.2251   6.2471  11.1463  11.3122

          k =-0.0000-0.5779 0.2314 (  1874 PWs)   bands (ev):

   -70.6866 -70.6862 -37.4733 -37.4711 -37.4558 -37.4524 -37.4522 -37.4494
     3.9072   3.9245   5.3644   5.3967  12.3997  12.7962

          k =-0.0000-0.5779-0.3086 (  1876 PWs)   bands (ev):

   -70.6864 -70.6864 -37.4727 -37.4727 -37.4536 -37.4536 -37.4508 -37.4508
     4.2495   4.2495   4.8881   4.8881  13.3372  13.3374

          k = 0.1251 0.2167 0.0000 (  1863 PWs)   bands (ev):

   -70.6886 -70.6863 -37.4728 -37.4554 -37.4533 -37.4491 -37.4478 -37.4451
    -0.6405   4.5156   4.9804  10.8630  11.2004  15.4349

          k = 0.1251 0.2167 0.0771 (  1865 PWs)   bands (ev):

   -70.6885 -70.6864 -37.4721 -37.4550 -37.4538 -37.4499 -37.4473 -37.4453
    -0.5540   3.4925   6.1482  10.9360  11.2745  14.7490

          k = 0.1251 0.2167 0.1543 (  1871 PWs)   bands (ev):

   -70.6883 -70.6867 -37.4701 -37.4559 -37.4539 -37.4504 -37.4473 -37.4459
    -0.2950   2.4192   7.6517  11.1494  11.4879  13.7270

          k = 0.1251 0.2167 0.2314 (  1880 PWs)   bands (ev):

   -70.6879 -70.6870 -37.4671 -37.4594 -37.4524 -37.4503 -37.4477 -37.4467
     0.1349   1.4962   9.2747  11.4711  11.7794  12.5451

          k = 0.1251 0.2167-0.3086 (  1880 PWs)   bands (ev):

   -70.6875 -70.6875 -37.4633 -37.4633 -37.4509 -37.4509 -37.4475 -37.4475
     0.7331   0.7331  10.9447  10.9447  11.8461  11.8461

          k = 0.1251 0.3612-0.0000 (  1869 PWs)   bands (ev):

   -70.6877 -70.6860 -37.4683 -37.4626 -37.4599 -37.4529 -37.4504 -37.4475
     0.5644   5.6339   5.9998   7.7833   9.9080  12.3835

          k = 0.1251 0.3612 0.0771 (  1868 PWs)   bands (ev):

   -70.6876 -70.6861 -37.4687 -37.4619 -37.4600 -37.4532 -37.4499 -37.4476
     0.6497   4.6250   7.0221   7.9802   9.9567  11.6641

          k = 0.1251 0.3612 0.1543 (  1865 PWs)   bands (ev):

   -70.6874 -70.6863 -37.4692 -37.4628 -37.4583 -37.4534 -37.4497 -37.4481
     0.9051   3.5765   7.7582   8.8931   9.9490  10.9996

          k = 0.1251 0.3612 0.2314 (  1873 PWs)   bands (ev):

   -70.6872 -70.6865 -37.4687 -37.4651 -37.4557 -37.4532 -37.4500 -37.4488
     1.3290   2.6700   8.2379   9.4434  10.1304  11.2102

          k = 0.1251 0.3612-0.3086 (  1880 PWs)   bands (ev):

   -70.6868 -70.6868 -37.4673 -37.4673 -37.4538 -37.4538 -37.4496 -37.4496
     1.9187   1.9187   8.7973   8.7973  10.9881  10.9881

          k = 0.1251 0.5056-0.0000 (  1880 PWs)   bands (ev):

   -70.6869 -70.6859 -37.4682 -37.4639 -37.4638 -37.4558 -37.4535 -37.4490
     2.3404   4.6301   7.3091   7.8683   9.1677   9.5924

          k = 0.1251 0.5056 0.0771 (  1876 PWs)   bands (ev):

   -70.6868 -70.6860 -37.4695 -37.4651 -37.4619 -37.4556 -37.4530 -37.4492
     2.4237   4.6958   6.4262   8.5248   8.7522   9.9077

          k = 0.1251 0.5056 0.1543 (  1881 PWs)   bands (ev):

   -70.6867 -70.6861 -37.4711 -37.4673 -37.4593 -37.4546 -37.4526 -37.4494
     2.6726   4.8057   5.5414   7.5947   9.4817  10.8312

          k = 0.1251 0.5056 0.2314 (  1874 PWs)   bands (ev):

   -70.6866 -70.6862 -37.4717 -37.4696 -37.4571 -37.4541 -37.4520 -37.4498
     3.0841   4.3384   5.5270   6.7469   9.9962  11.2026

          k = 0.1251 0.5056-0.3086 (  1870 PWs)   bands (ev):

   -70.6864 -70.6864 -37.4712 -37.4712 -37.4553 -37.4553 -37.4507 -37.4507
     3.6503   3.6503   6.0427   6.0427  10.5728  10.5728

          k = 0.2502 0.4334 0.0000 (  1871 PWs)   bands (ev):

   -70.6869 -70.6859 -37.4651 -37.4638 -37.4633 -37.4564 -37.4535 -37.4521
     2.0473   6.3325   6.6290   7.0324   8.2190  11.2872

          k = 0.2502 0.4334 0.0771 (  1878 PWs)   bands (ev):

   -70.6868 -70.6860 -37.4665 -37.4654 -37.4603 -37.4576 -37.4522 -37.4522
     2.1310   5.8606   6.7060   6.9419   8.9344  10.6994

          k = 0.2502 0.4334 0.1543 (  1875 PWs)   bands (ev):

   -70.6867 -70.6861 -37.4685 -37.4664 -37.4586 -37.4575 -37.4525 -37.4507
     2.3815   4.9577   6.9336   7.1195   9.4027   9.7892

          k = 0.2502 0.4334 0.2314 (  1873 PWs)   bands (ev):

   -70.6866 -70.6862 -37.4695 -37.4680 -37.4582 -37.4566 -37.4518 -37.4501
     2.7965   4.0994   7.2918   7.4534   8.7798   8.9797

          k = 0.2502 0.4334-0.3086 (  1864 PWs)   bands (ev):

   -70.6864 -70.6864 -37.4692 -37.4692 -37.4573 -37.4573 -37.4506 -37.4506
     3.3720   3.3720   7.6370   7.6370   8.4710   8.4710

          k = 0.2502 0.5779-0.0000 (  1873 PWs)   bands (ev):

   -70.6864 -70.6860 -37.4665 -37.4619 -37.4605 -37.4600 -37.4562 -37.4543
     4.0687   4.0827   6.2964   8.8084   9.1922   9.3334

          k = 0.2502 0.5779 0.0771 (  1875 PWs)   bands (ev):

   -70.6864 -70.6860 -37.4671 -37.4635 -37.4622 -37.4572 -37.4559 -37.4536
     4.1477   4.1622   6.3428   8.1029   8.2657  10.0827

          k = 0.2502 0.5779 0.1543 (  1874 PWs)   bands (ev):

   -70.6864 -70.6861 -37.4684 -37.4661 -37.4622 -37.4566 -37.4542 -37.4519
     4.3817   4.3964   6.3885   7.0744   7.5509   9.3872

          k = 0.2502 0.5779 0.2314 (  1880 PWs)   bands (ev):

   -70.6863 -70.6861 -37.4695 -37.4683 -37.4611 -37.4579 -37.4519 -37.4507
     4.7523   4.7617   6.0716   6.2213   7.4516   8.5667

          k = 0.2502 0.5779-0.3086 (  1878 PWs)   bands (ev):

   -70.6862 -70.6862 -37.4695 -37.4695 -37.4596 -37.4596 -37.4507 -37.4507
     5.0650   5.0650   5.7253   5.7253   7.8915   7.8915

     the Fermi energy is     5.3345 ev

!    total energy              =    -250.64971052 Ry
     estimated scf accuracy    <          5.8E-09 Ry
     smearing contrib. (-TS)   =       0.00039103 Ry
     internal energy E=F+TS    =    -250.65010154 Ry

     The total energy is F=E-TS. E is the sum of the following terms:
     one-electron contribution =    -210.16359275 Ry
     hartree contribution      =     100.48985487 Ry
     xc contribution           =     -33.75270193 Ry
     ewald contribution        =    -107.22366173 Ry

     convergence has been achieved in   7 iterations

     Forces acting on atoms (cartesian axes, Ry/au):

     atom    1 type  1   force =     0.00000000    0.00000000   -0.00000000
     atom    2 type  1   force =    -0.00000000   -0.00000000    0.00000000

     Total force =     0.000000     Total SCF correction =     0.000000


     Computing stress (Cartesian axis) and pressure

          total   stress  (Ry/bohr**3)                   (kbar)     P=       -6.06
  -0.00003212  -0.00000000  -0.00000000           -4.72       -0.00       -0.00
  -0.00000000  -0.00003212   0.00000000           -0.00       -4.72        0.00
  -0.00000000   0.00000000  -0.00005938           -0.00        0.00       -8.73

     Energy error            =      4.8E-05
     Gradient error          =      3.0E-28
     Cell gradient error     =      5.9E-05


     number of scf cycles    =   2
     number of bfgs steps    =   1

     enthalpy old            =    -250.6496629585 Ry
     enthalpy new            =    -250.6497105178 Ry

     CASE: enthalpy_new < enthalpy_old


     WARNING: bfgs curvature condition failed, Theta= 0.882
     new trust radius        =       0.0087414159 bohr
     new conv_thr            =            1.0E-10 Ry

     new unit-cell volume =    311.08024 a.u.^3 (    46.09734 Ang^3 )
     density =      1.75105 g/cm^3

CELL_PARAMETERS (angstrom)
   3.202938892  -0.000000000  -0.000000000
  -1.601469446   2.773826447   0.000000000
  -0.000000000   0.000000000   5.188572480

ATOMIC_POSITIONS (angstrom)
Mg           -0.0000000000       -0.0000000000       -0.0000000000
Mg           -0.0000000000        1.8492176315        2.5942862402



     Writing output data file qe_tmp/ref_Mg_hcp.save/
     NEW-OLD atomic charge density approx. for the potential
     extrapolated charge   19.90012, renormalised to   20.00000

     total cpu time spent up to now is      173.1 secs

     Self-consistent Calculation

     iteration #  1     ecut=    50.00 Ry     beta= 0.70
     Davidson diagonalization with overlap
     ethr =  1.00E-06,  avg # of iterations =  3.0

     total cpu time spent up to now is      181.2 secs

     total energy              =    -250.64778276 Ry
     estimated scf accuracy    <       0.00098334 Ry

     iteration #  2     ecut=    50.00 Ry     beta= 0.70
     Davidson diagonalization with overlap
     ethr =  4.92E-06,  avg # of iterations =  2.0

     total cpu time spent up to now is      188.9 secs

     total energy              =    -250.64982714 Ry
     estimated scf accuracy    <       0.00098520 Ry

     iteration #  3     ecut=    50.00 Ry     beta= 0.70
     Davidson diagonalization with overlap
     ethr =  4.92E-06,  avg # of iterations =  1.0

     total cpu time spent up to now is      193.7 secs

     total energy              =    -250.64975080 Ry
     estimated scf accuracy    <       0.00021313 Ry

     iteration #  4     ecut=    50.00 Ry     beta= 0.70
     Davidson diagonalization with overlap
     ethr =  1.07E-06,  avg # of iterations =  2.0

     total cpu time spent up to now is      199.2 secs

     total energy              =    -250.64976314 Ry
     estimated scf accuracy    <       0.00001779 Ry

     iteration #  5     ecut=    50.00 Ry     beta= 0.70
     Davidson diagonalization with overlap
     ethr =  8.90E-08,  avg # of iterations =  2.0

     total cpu time spent up to now is      204.9 secs

     total energy              =    -250.64976440 Ry
     estimated scf accuracy    <       0.00000138 Ry

     iteration #  6     ecut=    50.00 Ry     beta= 0.70
     Davidson diagonalization with overlap
     ethr =  6.90E-09,  avg # of iterations =  2.0

     total cpu time spent up to now is      210.6 secs

     total energy              =    -250.64976454 Ry
     estimated scf accuracy    <       0.00000008 Ry

     iteration #  7     ecut=    50.00 Ry     beta= 0.70
     Davidson diagonalization with overlap
     ethr =  3.86E-10,  avg # of iterations =  1.7

     total cpu time spent up to now is      215.7 secs

     total energy              =    -250.64976453 Ry
     estimated scf accuracy    <       0.00000001 Ry

     iteration #  8     ecut=    50.00 Ry     beta= 0.70
     Davidson diagonalization with overlap
     ethr =  7.40E-11,  avg # of iterations =  2.0

     total cpu time spent up to now is      221.6 secs

     total energy              =    -250.64976453 Ry
     estimated scf accuracy    <          1.2E-10 Ry

     iteration #  9     ecut=    50.00 Ry     beta= 0.70
     Davidson diagonalization with overlap
     ethr =  5.98E-13,  avg # of iterations =  2.0

     total cpu time spent up to now is      227.6 secs

     End of self-consistent calculation

          k = 0.0000 0.0000 0.0000 (  1835 PWs)   bands (ev):

   -70.6420 -70.6390 -37.4299 -37.3998 -37.3998 -37.3979 -37.3950 -37.3950
    -1.5366   3.7169   4.1565  16.2714  16.2714  16.3827

          k = 0.0000-0.0000 0.0773 (  1864 PWs)   bands (ev):

   -70.6419 -70.6392 -37.4287 -37.3997 -37.3997 -37.3991 -37.3952 -37.3952
    -1.4488   2.6621   5.3629  16.3063  16.3409  16.3412

          k = 0.0000-0.0000 0.1547 (  1870 PWs)   bands (ev):

   -70.6415 -70.6395 -37.4252 -37.4026 -37.3991 -37.3991 -37.3957 -37.3957
    -1.1858   1.5704   6.9093  14.4066  16.5408  16.5408

          k = 0.0000-0.0000 0.2320 (  1876 PWs)   bands (ev):

   -70.6411 -70.6400 -37.4201 -37.4078 -37.3984 -37.3984 -37.3965 -37.3965
    -0.7493   0.6329   8.6034  12.3824  16.8370  16.8598

          k =-0.0000 0.0000-0.3093 (  1870 PWs)   bands (ev):

   -70.6405 -70.6405 -37.4140 -37.4140 -37.3974 -37.3974 -37.3974 -37.3974
    -0.1419  -0.1419  10.4332  10.4332  17.0177  17.0177

          k = 0.0000 0.1447-0.0000 (  1850 PWs)   bands (ev):

   -70.6416 -70.6389 -37.4284 -37.4031 -37.4009 -37.3986 -37.3984 -37.3956
    -1.2298   3.9962   4.4535  12.7260  14.5283  15.2822

          k = 0.0000 0.1447 0.0773 (  1862 PWs)   bands (ev):

   -70.6415 -70.6390 -37.4273 -37.4029 -37.4007 -37.4006 -37.3978 -37.3958
    -1.1422   2.9534   5.6465  12.7971  14.6010  15.2516

          k = 0.0000 0.1447 0.1547 (  1869 PWs)   bands (ev):

   -70.6412 -70.6393 -37.4243 -37.4041 -37.4022 -37.4002 -37.3980 -37.3964
    -0.8802   1.8663   7.1835  12.9920  14.6455  14.8191

          k = 0.0000 0.1447 0.2320 (  1867 PWs)   bands (ev):

   -70.6408 -70.6397 -37.4198 -37.4089 -37.4011 -37.3993 -37.3988 -37.3972
    -0.4452   0.9322   8.8641  12.5217  13.5246  14.5292

          k = 0.0000 0.1447-0.3093 (  1868 PWs)   bands (ev):

   -70.6402 -70.6402 -37.4144 -37.4144 -37.3999 -37.3999 -37.3983 -37.3983
     0.1601   0.1601  10.6690  10.6690  13.9518  13.9518

          k = 0.0000 0.2893-0.0000 (  1870 PWs)   bands (ev):

   -70.6407 -70.6385 -37.4243 -37.4112 -37.4067 -37.4035 -37.4006 -37.3971
    -0.3158   4.8354   5.3101   9.1578  13.2420  13.3677

          k = 0.0000 0.2893 0.0773 (  1871 PWs)   bands (ev):

   -70.6406 -70.6386 -37.4239 -37.4107 -37.4076 -37.4033 -37.4006 -37.3974
    -0.2292   3.8193   6.4627   9.2478  12.7263  13.3155

          k = 0.0000 0.2893 0.1547 (  1872 PWs)   bands (ev):

   -70.6404 -70.6388 -37.4225 -37.4107 -37.4086 -37.4025 -37.4011 -37.3981
     0.0301   2.7469   7.9230   9.5342  11.8326  13.5362

          k = 0.0000 0.2893 0.2320 (  1878 PWs)   bands (ev):

   -70.6400 -70.6392 -37.4202 -37.4138 -37.4066 -37.4023 -37.4015 -37.3991
     0.4606   1.8234   9.3059  10.1517  11.0371  13.3705

          k = 0.0000 0.2893-0.3093 (  1882 PWs)   bands (ev):

   -70.6396 -70.6396 -37.4172 -37.4172 -37.4043 -37.4043 -37.4003 -37.4003
     1.0596   1.0596  10.1642  10.1642  11.6952  11.6952

          k = 0.0000 0.4340-0.0000 (  1880 PWs)   bands (ev):

   -70.6397 -70.6383 -37.4194 -37.4193 -37.4147 -37.4060 -37.4037 -37.3987
     1.1863   5.6575   6.2367   7.1215  10.7686  11.1340

          k = 0.0000 0.4340 0.0773 (  1879 PWs)   bands (ev):

   -70.6396 -70.6383 -37.4219 -37.4165 -37.4151 -37.4057 -37.4035 -37.3990
     1.2714   5.1466   6.0384   8.0449   9.8345  12.1123

          k = 0.0000 0.4340 0.1547 (  1884 PWs)   bands (ev):

   -70.6395 -70.6385 -37.4235 -37.4182 -37.4120 -37.4049 -37.4034 -37.3998
     1.5261   4.1716   6.2413   8.7461   9.5748  12.7661

          k = 0.0000 0.4340 0.2320 (  1869 PWs)   bands (ev):

   -70.6392 -70.6387 -37.4238 -37.4207 -37.4085 -37.4040 -37.4037 -37.4010
     1.9486   3.2811   6.6409   7.9209  11.1105  13.1339

          k = 0.0000 0.4340-0.3093 (  1876 PWs)   bands (ev):

   -70.6390 -70.6390 -37.4228 -37.4228 -37.4058 -37.4058 -37.4023 -37.4023
     2.5356   2.5356   7.2044   7.2044  12.6984  12.6984

          k =-0.0000-0.5786 0.0000 (  1890 PWs)   bands (ev):

   -70.6392 -70.6382 -37.4228 -37.4181 -37.4163 -37.4070 -37.4058 -37.3994
     3.2420   3.2427   8.0357   8.4001   8.6626   9.0683

          k =-0.0000-0.5786 0.0773 (  1890 PWs)   bands (ev):

   -70.6392 -70.6383 -37.4240 -37.4191 -37.4146 -37.4067 -37.4054 -37.3997
     3.3220   3.3256   7.2783   7.3140   9.8984   9.9302

          k =-0.0000-0.5786 0.1547 (  1880 PWs)   bands (ev):

   -70.6391 -70.6384 -37.4255 -37.4214 -37.4113 -37.4059 -37.4047 -37.4005
     3.5596   3.5709   6.2686   6.2930  11.2062  11.3791

          k =-0.0000-0.5786 0.2320 (  1874 PWs)   bands (ev):

   -70.6389 -70.6385 -37.4262 -37.4238 -37.4082 -37.4047 -37.4046 -37.4017
     3.9391   3.9593   5.4044   5.4395  12.4581  12.8666

          k =-0.0000-0.5786-0.3093 (  1876 PWs)   bands (ev):

   -70.6387 -70.6387 -37.4256 -37.4256 -37.4059 -37.4059 -37.4032 -37.4032
     4.2834   4.2834   4.9284   4.9284  13.3957  13.3959

          k = 0.1253 0.2170-0.0000 (  1863 PWs)   bands (ev):

   -70.6410 -70.6386 -37.4256 -37.4079 -37.4058 -37.4015 -37.3999 -37.3974
    -0.6194   4.5555   5.0334  10.9101  11.2554  15.4993

          k = 0.1253 0.2170 0.0773 (  1865 PWs)   bands (ev):

   -70.6409 -70.6387 -37.4249 -37.4075 -37.4062 -37.4023 -37.3995 -37.3976
    -0.5325   3.5324   6.2016  10.9834  11.3298  14.8150

          k = 0.1253 0.2170 0.1547 (  1871 PWs)   bands (ev):

   -70.6406 -70.6390 -37.4228 -37.4084 -37.4064 -37.4027 -37.3996 -37.3982
    -0.2722   2.4546   7.7108  11.1978  11.5438  13.7912

          k = 0.1253 0.2170 0.2320 (  1880 PWs)   bands (ev):

   -70.6402 -70.6393 -37.4197 -37.4119 -37.4048 -37.4026 -37.4000 -37.3991
     0.1597   1.5275   9.3395  11.5219  11.8350  12.6098

          k = 0.1253 0.2170-0.3093 (  1880 PWs)   bands (ev):

   -70.6398 -70.6398 -37.4159 -37.4159 -37.4033 -37.4033 -37.3999 -37.3999
     0.7608   0.7608  11.0137  11.0137  11.8970  11.8970

          k = 0.1253 0.3616-0.0000 (  1869 PWs)   bands (ev):

   -70.6400 -70.6383 -37.4210 -37.4153 -37.4124 -37.4053 -37.4026 -37.3998
     0.5886   5.6761   6.0508   7.8296   9.9577  12.4403

          k = 0.1253 0.3616 0.0773 (  1868 PWs)   bands (ev):

   -70.6399 -70.6384 -37.4214 -37.4145 -37.4126 -37.4057 -37.4022 -37.4000
     0.6743   4.6669   7.0696   8.0307  10.0066  11.7238

          k = 0.1253 0.3616 0.1547 (  1865 PWs)   bands (ev):

   -70.6398 -70.6386 -37.4219 -37.4154 -37.4108 -37.4058 -37.4020 -37.4004
     0.9310   3.6143   7.8009   8.9526   9.9984  11.0602

          k = 0.1253 0.3616 0.2320 (  1873 PWs)   bands (ev):

   -70.6395 -70.6388 -37.4215 -37.4178 -37.4081 -37.4056 -37.4023 -37.4011
     1.3568   2.7039   8.2819   9.4921  10.1873  11.2749

          k = 0.1253 0.3616-0.3093 (  1880 PWs)   bands (ev):

   -70.6392 -70.6392 -37.4200 -37.4200 -37.4062 -37.4062 -37.4020 -37.4020
     1.9492   1.9492   8.8435   8.8435  11.0430  11.0430

          k = 0.1253 0.5063-0.0000 (  1880 PWs)   bands (ev):

   -70.6392 -70.6382 -37.4210 -37.4165 -37.4163 -37.4083 -37.4058 -37.4014
     2.3689   4.6637   7.3550   7.9243   9.2192   9.6426

          k = 0.1253 0.5063 0.0773 (  1876 PWs)   bands (ev):

   -70.6392 -70.6383 -37.4222 -37.4177 -37.4144 -37.4081 -37.4053 -37.4015
     2.4526   4.7296   6.4726   8.5746   8.8037   9.9661

          k = 0.1253 0.5063 0.1547 (  1881 PWs)   bands (ev):

   -70.6391 -70.6384 -37.4239 -37.4200 -37.4118 -37.4071 -37.4049 -37.4017
     2.7026   4.8405   5.5844   7.6415   9.5299  10.8990

          k = 0.1253 0.5063 0.2320 (  1874 PWs)   bands (ev):

   -70.6389 -70.6385 -37.4245 -37.4223 -37.4095 -37.4065 -37.4044 -37.4021
     3.1160   4.3748   5.5665   6.7906  10.0459  11.2590

          k = 0.1253 0.5063-0.3093 (  1870 PWs)   bands (ev):

   -70.6387 -70.6387 -37.4240 -37.4240 -37.4077 -37.4077 -37.4030 -37.4030
     3.6846   3.6846   6.0837   6.0837  10.6252  10.6252

          k = 0.2506 0.4340-0.0000 (  1871 PWs)   bands (ev):

   -70.6392 -70.6382 -37.4178 -37.4164 -37.4159 -37.4090 -37.4058 -37.4045
     2.0751   6.3715   6.6658   7.0777   8.2840  11.3432

          k = 0.2506 0.4340 0.0773 (  1878 PWs)   bands (ev):

   -70.6392 -70.6383 -37.4191 -37.4181 -37.4128 -37.4101 -37.4046 -37.4045
     2.1592   5.9020   6.7432   6.9856   8.9980  10.7568

          k = 0.2506 0.4340 0.1547 (  1875 PWs)   bands (ev):

   -70.6391 -70.6384 -37.4212 -37.4191 -37.4111 -37.4100 -37.4049 -37.4030
     2.4108   4.9976   6.9717   7.1627   9.4564   9.8448

          k = 0.2506 0.4340 0.2320 (  1873 PWs)   bands (ev):

   -70.6389 -70.6385 -37.4222 -37.4207 -37.4108 -37.4090 -37.4042 -37.4024
     2.8278   4.1362   7.3313   7.4969   8.8294   9.0327

          k = 0.2506 0.4340-0.3093 (  1864 PWs)   bands (ev):

   -70.6387 -70.6387 -37.4219 -37.4219 -37.4098 -37.4098 -37.4029 -37.4029
     3.4057   3.4057   7.6781   7.6781   8.5221   8.5221

          k = 0.2506 0.5786-0.0000 (  1873 PWs)   bands (ev):

   -70.6387 -70.6383 -37.4193 -37.4145 -37.4129 -37.4126 -37.4086 -37.4067
     4.0996   4.1167   6.3333   8.8595   9.2402   9.3967

          k = 0.2506 0.5786 0.0773 (  1875 PWs)   bands (ev):

   -70.6387 -70.6383 -37.4198 -37.4161 -37.4148 -37.4097 -37.4083 -37.4060
     4.1789   4.1965   6.3798   8.1527   8.3186  10.1401

          k = 0.2506 0.5786 0.1547 (  1874 PWs)   bands (ev):

   -70.6387 -70.6384 -37.4211 -37.4188 -37.4149 -37.4090 -37.4066 -37.4042
     4.4140   4.4316   6.4262   7.1197   7.6024   9.4405

          k = 0.2506 0.5786 0.2320 (  1880 PWs)   bands (ev):

   -70.6386 -70.6385 -37.4222 -37.4210 -37.4137 -37.4104 -37.4042 -37.4030
     4.7861   4.7979   6.1121   6.2630   7.4995   8.6169

          k = 0.2506 0.5786-0.3093 (  1878 PWs)   bands (ev):

   -70.6385 -70.6385 -37.4222 -37.4222 -37.4121 -37.4121 -37.4030 -37.4030
     5.1005   5.1005   5.7661   5.7661   7.9394   7.9394

     the Fermi energy is     5.3793 ev

!    total energy              =    -250.64976453 Ry
     estimated scf accuracy    <          1.0E-13 Ry
     smearing contrib. (-TS)   =       0.00035497 Ry
     internal energy E=F+TS    =    -250.65011950 Ry

     The total energy is F=E-TS. E is the sum of the following terms:
     one-electron contribution =    -209.86105150 Ry
     hartree contribution      =     100.37428462 Ry
     xc contribution           =     -33.75630406 Ry
     ewald contribution        =    -107.40704855 Ry

     convergence has been achieved in   9 iterations

     Forces acting on atoms (cartesian axes, Ry/au):

     atom    1 type  1   force =     0.00000000    0.00000000   -0.00000000
     atom    2 type  1   force =     0.00000000    0.00000000   -0.00000000

     Total force =     0.000000     Total SCF correction =     0.000000


     Computing stress (Cartesian axis) and pressure

          total   stress  (Ry/bohr**3)                   (kbar)     P=       -3.50
  -0.00001656  -0.00000000  -0.00000000           -2.44       -0.00       -0.00
  -0.00000000  -0.00001656   0.00000000           -0.00       -2.44        0.00
  -0.00000000   0.00000000  -0.00003830           -0.00        0.00       -5.63

     Energy error            =      5.4E-05
     Gradient error          =      2.4E-27
     Cell gradient error     =      3.8E-05


     number of scf cycles    =   3
     number of bfgs steps    =   2

     enthalpy old            =    -250.6497105178 Ry
     enthalpy new            =    -250.6497645348 Ry

     CASE: enthalpy_new < enthalpy_old

     new trust radius        =       0.0131109067 bohr
     new conv_thr            =            1.0E-10 Ry

     new unit-cell volume =    308.84078 a.u.^3 (    45.76548 Ang^3 )
     density =      1.76375 g/cm^3

CELL_PARAMETERS (angstrom)
   3.197336552  -0.000000000  -0.000000000
  -1.598668276   2.768974679   0.000000000
  -0.000000000   0.000000000   5.169287713

ATOMIC_POSITIONS (angstrom)
Mg           -0.0000000000        0.0000000000        0.0000000000
Mg           -0.0000000000        1.8459831192        2.5846438564



     Writing output data file qe_tmp/ref_Mg_hcp.save/
     NEW-OLD atomic charge density approx. for the potential
     extrapolated charge   19.85933, renormalised to   20.00000

     total cpu time spent up to now is      235.0 secs

     Self-consistent Calculation

     iteration #  1     ecut=    50.00 Ry     beta= 0.70
     Davidson diagonalization with overlap
     ethr =  1.00E-06,  avg # of iterations =  3.5

     total cpu time spent up to now is      243.3 secs

     total energy              =    -250.64589788 Ry
     estimated scf accuracy    <       0.00193791 Ry

     iteration #  2     ecut=    50.00 Ry     beta= 0.70
     Davidson diagonalization with overlap
     ethr =  9.69E-06,  avg # of iterations =  2.0

     total cpu time spent up to now is      249.8 secs

     total energy              =    -250.64992716 Ry
     estimated scf accuracy    <       0.00193981 Ry

     iteration #  3     ecut=    50.00 Ry     beta= 0.70
     Davidson diagonalization with overlap
     ethr =  9.69E-06,  avg # of iterations =  1.0

     total cpu time spent up to now is      254.5 secs

     total energy              =    -250.64977768 Ry
     estimated scf accuracy    <       0.00041877 Ry

     iteration #  4     ecut=    50.00 Ry     beta= 0.70
     Davidson diagonalization with overlap
     ethr =  2.09E-06,  avg # of iterations =  2.0

     total cpu time spent up to now is      259.9 secs

     total energy              =    -250.64980176 Ry
     estimated scf accuracy    <       0.00003493 Ry

     iteration #  5     ecut=    50.00 Ry     beta= 0.70
     Davidson diagonalization with overlap
     ethr =  1.75E-07,  avg # of iterations =  2.0

     total cpu time spent up to now is      265.6 secs

     total energy              =    -250.64980447 Ry
     estimated scf accuracy    <       0.00000253 Ry

     iteration #  6     ecut=    50.00 Ry     beta= 0.70
     Davidson diagonalization with overlap
     ethr =  1.26E-08,  avg # of iterations =  2.0

     total cpu time spent up to now is      271.3 secs

     total energy              =    -250.64980472 Ry
     estimated scf accuracy    <       0.00000015 Ry

     iteration #  7     ecut=    50.00 Ry     beta= 0.70
     Davidson diagonalization with overlap
     ethr =  7.35E-10,  avg # of iterations =  1.9

     total cpu time spent up to now is      276.4 secs

     total energy              =    -250.64980471 Ry
     estimated scf accuracy    <       0.00000003 Ry

     iteration #  8     ecut=    50.00 Ry     beta= 0.70
     Davidson diagonalization with overlap
     ethr =  1.30E-10,  avg # of iterations =  2.0

     total cpu time spent up to now is      282.2 secs

     End of self-consistent calculation

          k = 0.0000 0.0000 0.0000 (  1835 PWs)   bands (ev):

   -70.5738 -70.5707 -37.3624 -37.3317 -37.3317 -37.3293 -37.3266 -37.3266
    -1.5101   3.7729   4.2329  16.3499  16.3499  16.4710

          k = 0.0000-0.0000 0.0776 (  1864 PWs)   bands (ev):

   -70.5737 -70.5708 -37.3612 -37.3315 -37.3315 -37.3306 -37.3268 -37.3268
    -1.4216   2.7180   5.4403  16.4197  16.4199  16.4373

          k = 0.0000-0.0000 0.1552 (  1870 PWs)   bands (ev):

   -70.5733 -70.5712 -37.3576 -37.3342 -37.3309 -37.3309 -37.3274 -37.3274
    -1.1567   1.6193   6.9963  14.5387  16.6203  16.6203

          k = 0.0000-0.0000 0.2329 (  1876 PWs)   bands (ev):

   -70.5728 -70.5717 -37.3522 -37.3396 -37.3301 -37.3301 -37.3282 -37.3282
    -0.7169   0.6753   8.7013  12.5040  16.9178  16.9457

          k =-0.0000 0.0000-0.3105 (  1870 PWs)   bands (ev):

   -70.5723 -70.5723 -37.3459 -37.3459 -37.3292 -37.3292 -37.3292 -37.3292
    -0.1051  -0.1051  10.5428  10.5428  17.0992  17.0992

          k = 0.0000 0.1449-0.0000 (  1850 PWs)   bands (ev):

   -70.5734 -70.5706 -37.3608 -37.3351 -37.3328 -37.3302 -37.3300 -37.3273
    -1.2022   4.0529   4.5306  12.7993  14.6082  15.3629

          k = 0.0000 0.1449 0.0776 (  1862 PWs)   bands (ev):

   -70.5733 -70.5707 -37.3597 -37.3348 -37.3326 -37.3322 -37.3294 -37.3275
    -1.1140   3.0101   5.7245  12.8710  14.6813  15.3333

          k = 0.0000 0.1449 0.1552 (  1869 PWs)   bands (ev):

   -70.5730 -70.5710 -37.3566 -37.3358 -37.3340 -37.3320 -37.3296 -37.3281
    -0.8500   1.9160   7.2709  13.0686  14.7711  14.9005

          k = 0.0000 0.1449 0.2329 (  1867 PWs)   bands (ev):

   -70.5725 -70.5714 -37.3519 -37.3407 -37.3330 -37.3311 -37.3305 -37.3290
    -0.4118   0.9755   8.9620  12.6368  13.6062  14.6103

          k = 0.0000 0.1449-0.3105 (  1868 PWs)   bands (ev):

   -70.5720 -70.5720 -37.3464 -37.3464 -37.3317 -37.3317 -37.3300 -37.3300
     0.1979   0.1979  10.7777  10.7777  14.0315  14.0315

          k = 0.0000 0.2898-0.0000 (  1870 PWs)   bands (ev):

   -70.5725 -70.5702 -37.3567 -37.3433 -37.3386 -37.3354 -37.3321 -37.3288
    -0.2850   4.8943   5.3882   9.2222  13.3193  13.4446

          k = 0.0000 0.2898 0.0776 (  1871 PWs)   bands (ev):

   -70.5724 -70.5703 -37.3562 -37.3427 -37.3396 -37.3352 -37.3321 -37.3291
    -0.1978   3.8781   6.5411   9.3132  12.8052  13.3932

          k = 0.0000 0.2898 0.1552 (  1872 PWs)   bands (ev):

   -70.5721 -70.5705 -37.3548 -37.3427 -37.3406 -37.3344 -37.3326 -37.3298
     0.0634   2.7991   8.0072   9.6043  11.9089  13.6151

          k = 0.0000 0.2898 0.2329 (  1878 PWs)   bands (ev):

   -70.5718 -70.5709 -37.3524 -37.3459 -37.3384 -37.3340 -37.3334 -37.3308
     0.4970   1.8695   9.3840  10.2392  11.1105  13.4841

          k = 0.0000 0.2898-0.3105 (  1882 PWs)   bands (ev):

   -70.5713 -70.5713 -37.3493 -37.3493 -37.3360 -37.3360 -37.3321 -37.3321
     1.1003   1.1003  10.2352  10.2352  11.8029  11.8029

          k = 0.0000 0.4347-0.0000 (  1880 PWs)   bands (ev):

   -70.5714 -70.5699 -37.3516 -37.3514 -37.3468 -37.3380 -37.3353 -37.3304
     1.2221   5.7085   6.2994   7.2070  10.8432  11.2194

          k = 0.0000 0.4347 0.0776 (  1879 PWs)   bands (ev):

   -70.5714 -70.5700 -37.3543 -37.3487 -37.3472 -37.3377 -37.3351 -37.3307
     1.3078   5.2053   6.0932   8.1318   9.9088  12.1952

          k = 0.0000 0.4347 0.1552 (  1884 PWs)   bands (ev):

   -70.5712 -70.5701 -37.3559 -37.3504 -37.3439 -37.3368 -37.3350 -37.3315
     1.5643   4.2270   6.2954   8.8186   9.6655  12.8435

          k = 0.0000 0.4347 0.2329 (  1869 PWs)   bands (ev):

   -70.5710 -70.5704 -37.3562 -37.3530 -37.3403 -37.3357 -37.3356 -37.3327
     1.9898   3.3312   6.6973   7.9857  11.2106  13.2134

          k = 0.0000 0.4347-0.3105 (  1876 PWs)   bands (ev):

   -70.5707 -70.5707 -37.3551 -37.3551 -37.3375 -37.3375 -37.3342 -37.3342
     2.5808   2.5808   7.2645   7.2645  12.8009  12.8009

          k =-0.0000-0.5796 0.0000 (  1890 PWs)   bands (ev):

   -70.5709 -70.5699 -37.3551 -37.3502 -37.3484 -37.3390 -37.3375 -37.3311
     3.2822   3.2868   8.1065   8.4648   8.7545   9.1534

          k =-0.0000-0.5796 0.0776 (  1890 PWs)   bands (ev):

   -70.5709 -70.5699 -37.3563 -37.3513 -37.3466 -37.3387 -37.3371 -37.3314
     3.3627   3.3703   7.3481   7.3825   9.9873  10.0152

          k =-0.0000-0.5796 0.1552 (  1880 PWs)   bands (ev):

   -70.5708 -70.5701 -37.3580 -37.3537 -37.3432 -37.3378 -37.3363 -37.3323
     3.6019   3.6172   6.3306   6.3580  11.2922  11.4769

          k =-0.0000-0.5796 0.2329 (  1874 PWs)   bands (ev):

   -70.5706 -70.5702 -37.3586 -37.3562 -37.3400 -37.3365 -37.3364 -37.3335
     3.9837   4.0077   5.4612   5.4996  12.5413  12.9690

          k =-0.0000-0.5796-0.3105 (  1876 PWs)   bands (ev):

   -70.5704 -70.5704 -37.3580 -37.3580 -37.3376 -37.3376 -37.3350 -37.3350
     4.3310   4.3310   4.9848   4.9848  13.4785  13.4786

          k = 0.1255 0.2174-0.0000 (  1863 PWs)   bands (ev):

   -70.5727 -70.5703 -37.3580 -37.3399 -37.3377 -37.3333 -37.3314 -37.3290
    -0.5897   4.6136   5.1115  10.9740  11.3301  15.5888

          k = 0.1255 0.2174 0.0776 (  1865 PWs)   bands (ev):

   -70.5727 -70.5704 -37.3572 -37.3395 -37.3382 -37.3341 -37.3311 -37.3293
    -0.5021   3.5905   6.2804  11.0478  11.4050  14.9068

          k = 0.1255 0.2174 0.1552 (  1871 PWs)   bands (ev):

   -70.5724 -70.5707 -37.3552 -37.3403 -37.3383 -37.3346 -37.3312 -37.3299
    -0.2400   2.5061   7.7980  11.2639  11.6201  13.8811

          k = 0.1255 0.2174 0.2329 (  1880 PWs)   bands (ev):

   -70.5720 -70.5710 -37.3519 -37.3439 -37.3367 -37.3344 -37.3317 -37.3308
     0.1952   1.5726   9.4352  11.5917  11.9113  12.7026

          k = 0.1255 0.2174-0.3105 (  1880 PWs)   bands (ev):

   -70.5715 -70.5715 -37.3480 -37.3480 -37.3350 -37.3350 -37.3317 -37.3317
     0.8006   0.8006  11.1152  11.1152  11.9669  11.9669

          k = 0.1255 0.3623-0.0000 (  1869 PWs)   bands (ev):

   -70.5717 -70.5700 -37.3532 -37.3474 -37.3445 -37.3373 -37.3342 -37.3315
     0.6224   5.7372   6.1249   7.8937  10.0257  12.5200

          k = 0.1255 0.3623 0.0776 (  1868 PWs)   bands (ev):

   -70.5717 -70.5701 -37.3537 -37.3466 -37.3446 -37.3376 -37.3338 -37.3317
     0.7088   4.7275   7.1378   8.1017  10.0751  11.8074

          k = 0.1255 0.3623 0.1552 (  1865 PWs)   bands (ev):

   -70.5715 -70.5702 -37.3542 -37.3476 -37.3427 -37.3377 -37.3337 -37.3321
     0.9672   3.6688   7.8601   9.0388  10.0672  11.1445

          k = 0.1255 0.3623 0.2329 (  1873 PWs)   bands (ev):

   -70.5712 -70.5705 -37.3538 -37.3500 -37.3400 -37.3374 -37.3341 -37.3328
     1.3961   2.7525   8.3426   9.5599  10.2688  11.3665

          k = 0.1255 0.3623-0.3105 (  1880 PWs)   bands (ev):

   -70.5709 -70.5709 -37.3523 -37.3523 -37.3380 -37.3380 -37.3338 -37.3338
     1.9927   1.9927   8.9076   8.9076  11.1197  11.1197

          k = 0.1255 0.5072-0.0000 (  1880 PWs)   bands (ev):

   -70.5709 -70.5699 -37.3533 -37.3486 -37.3484 -37.3404 -37.3375 -37.3332
     2.4084   4.7100   7.4211   8.0049   9.2918   9.7138

          k = 0.1255 0.5072 0.0776 (  1876 PWs)   bands (ev):

   -70.5709 -70.5699 -37.3546 -37.3499 -37.3465 -37.3401 -37.3370 -37.3333
     2.4926   4.7763   6.5391   8.6446   8.8777  10.0489

          k = 0.1255 0.5072 0.1552 (  1881 PWs)   bands (ev):

   -70.5708 -70.5700 -37.3562 -37.3522 -37.3438 -37.3390 -37.3366 -37.3335
     2.7444   4.8891   5.6452   7.7076   9.5968  10.9967

          k = 0.1255 0.5072 0.2329 (  1874 PWs)   bands (ev):

   -70.5706 -70.5702 -37.3569 -37.3546 -37.3414 -37.3383 -37.3362 -37.3338
     3.1605   4.4265   5.6212   6.8519  10.1145  11.3377

          k = 0.1255 0.5072-0.3105 (  1870 PWs)   bands (ev):

   -70.5704 -70.5704 -37.3564 -37.3564 -37.3396 -37.3396 -37.3347 -37.3347
     3.7328   3.7328   6.1408   6.1408  10.6976  10.6976

          k = 0.2510 0.4347-0.0000 (  1871 PWs)   bands (ev):

   -70.5709 -70.5699 -37.3500 -37.3484 -37.3481 -37.3410 -37.3375 -37.3363
     2.1137   6.4257   6.7163   7.1427   8.3774  11.4220

          k = 0.2510 0.4347 0.0776 (  1878 PWs)   bands (ev):

   -70.5709 -70.5699 -37.3514 -37.3503 -37.3448 -37.3422 -37.3365 -37.3362
     2.1984   5.9608   6.7942   7.0464   9.0902  10.8374

          k = 0.2510 0.4347 0.1552 (  1875 PWs)   bands (ev):

   -70.5708 -70.5700 -37.3536 -37.3514 -37.3431 -37.3419 -37.3367 -37.3346
     2.4518   5.0545   7.0241   7.2222   9.5328   9.9226

          k = 0.2510 0.4347 0.2329 (  1873 PWs)   bands (ev):

   -70.5706 -70.5702 -37.3546 -37.3530 -37.3428 -37.3409 -37.3360 -37.3340
     2.8715   4.1884   7.3859   7.5567   8.8989   9.1065

          k = 0.2510 0.4347-0.3105 (  1864 PWs)   bands (ev):

   -70.5704 -70.5704 -37.3543 -37.3543 -37.3418 -37.3418 -37.3346 -37.3346
     3.4534   3.4534   7.7351   7.7351   8.5929   8.5929

          k = 0.2510 0.5796-0.0000 (  1873 PWs)   bands (ev):

   -70.5704 -70.5700 -37.3515 -37.3466 -37.3449 -37.3447 -37.3404 -37.3386
     4.1424   4.1633   6.3840   8.9323   9.3086   9.4887

          k = 0.2510 0.5796 0.0776 (  1875 PWs)   bands (ev):

   -70.5704 -70.5700 -37.3520 -37.3482 -37.3469 -37.3416 -37.3402 -37.3378
     4.2222   4.2436   6.4307   8.2239   8.3933  10.2221

          k = 0.2510 0.5796 0.1552 (  1874 PWs)   bands (ev):

   -70.5704 -70.5701 -37.3535 -37.3510 -37.3470 -37.3410 -37.3384 -37.3359
     4.4588   4.4801   6.4786   7.1842   7.6744   9.5155

          k = 0.2510 0.5796 0.2329 (  1880 PWs)   bands (ev):

   -70.5703 -70.5701 -37.3546 -37.3533 -37.3458 -37.3424 -37.3359 -37.3347
     4.8332   4.8482   6.1687   6.3220   7.5659   8.6870

          k = 0.2510 0.5796-0.3105 (  1878 PWs)   bands (ev):

   -70.5702 -70.5702 -37.3546 -37.3546 -37.3442 -37.3442 -37.3346 -37.3346
     5.1502   5.1502   5.8232   5.8232   8.0060   8.0060

     the Fermi energy is     5.4432 ev

!    total energy              =    -250.64980471 Ry
     estimated scf accuracy    <          7.0E-12 Ry
     smearing contrib. (-TS)   =       0.00029737 Ry
     internal energy E=F+TS    =    -250.65010208 Ry

     The total energy is F=E-TS. E is the sum of the following terms:
     one-electron contribution =    -209.43440271 Ry
     hartree contribution      =     100.21097558 Ry
     xc contribution           =     -33.76126739 Ry
     ewald contribution        =    -107.66540757 Ry

     convergence has been achieved in   8 iterations

     Forces acting on atoms (cartesian axes, Ry/au):

     atom    1 type  1   force =     0.00000000    0.00000000   -0.00000000
     atom    2 type  1   force =    -0.00000000   -0.00000000    0.00000000

     Total force =     0.000000     Total SCF correction =     0.000000


     Computing stress (Cartesian axis) and pressure

          total   stress  (Ry/bohr**3)                   (kbar)     P=       -0.83
  -0.00000162  -0.00000000  -0.00000000           -0.24       -0.00       -0.00
  -0.00000000  -0.00000162   0.00000000           -0.00       -0.24        0.00
  -0.00000000   0.00000000  -0.00001372           -0.00        0.00       -2.02

     Energy error            =      4.0E-05
     Gradient error          =      2.3E-27
     Cell gradient error     =      1.4E-05


     number of scf cycles    =   4
     number of bfgs steps    =   3

     enthalpy old            =    -250.6497645348 Ry
     enthalpy new            =    -250.6498047136 Ry

     CASE: enthalpy_new < enthalpy_old

     new trust radius        =       0.0055590332 bohr
     new conv_thr            =            1.0E-10 Ry

     new unit-cell volume =    307.98812 a.u.^3 (    45.63913 Ang^3 )
     density =      1.76863 g/cm^3

CELL_PARAMETERS (angstrom)
   3.195447823  -0.000000000  -0.000000000
  -1.597723912   2.767338991   0.000000000
  -0.000000000   0.000000000   5.161111867

ATOMIC_POSITIONS (angstrom)
Mg           -0.0000000000        0.0000000000        0.0000000000
Mg           -0.0000000000        1.8448926609        2.5805559337



     Writing output data file qe_tmp/ref_Mg_hcp.save/
     NEW-OLD atomic charge density approx. for the potential
     extrapolated charge   19.94629, renormalised to   20.00000

     total cpu time spent up to now is      289.9 secs

     Self-consistent Calculation

     iteration #  1     ecut=    50.00 Ry     beta= 0.70
     Davidson diagonalization with overlap
     ethr =  1.00E-06,  avg # of iterations =  3.0

     total cpu time spent up to now is      297.4 secs

     total energy              =    -250.64922964 Ry
     estimated scf accuracy    <       0.00028646 Ry

     iteration #  2     ecut=    50.00 Ry     beta= 0.70
     Davidson diagonalization with overlap
     ethr =  1.43E-06,  avg # of iterations =  2.0

     total cpu time spent up to now is      303.9 secs

     total energy              =    -250.64982724 Ry
     estimated scf accuracy    <       0.00028942 Ry

     iteration #  3     ecut=    50.00 Ry     beta= 0.70
     Davidson diagonalization with overlap
     ethr =  1.43E-06,  avg # of iterations =  1.0

     total cpu time spent up to now is      308.6 secs

     total energy              =    -250.64980415 Ry
     estimated scf accuracy    <       0.00006294 Ry

     iteration #  4     ecut=    50.00 Ry     beta= 0.70
     Davidson diagonalization with overlap
     ethr =  3.15E-07,  avg # of iterations =  2.0

     total cpu time spent up to now is      314.2 secs

     total energy              =    -250.64980807 Ry
     estimated scf accuracy    <       0.00000486 Ry

     iteration #  5     ecut=    50.00 Ry     beta= 0.70
     Davidson diagonalization with overlap
     ethr =  2.43E-08,  avg # of iterations =  2.0

     total cpu time spent up to now is      320.0 secs

     total energy              =    -250.64980863 Ry
     estimated scf accuracy    <       0.00000024 Ry

     iteration #  6     ecut=    50.00 Ry     beta= 0.70
     Davidson diagonalization with overlap
     ethr =  1.20E-09,  avg # of iterations =  1.0

     total cpu time spent up to now is      324.7 secs

     total energy              =    -250.64980861 Ry
     estimated scf accuracy    <       0.00000005 Ry

     iteration #  7     ecut=    50.00 Ry     beta= 0.70
     Davidson diagonalization with overlap
     ethr =  2.58E-10,  avg # of iterations =  2.0

     total cpu time spent up to now is      330.5 secs

     total energy              =    -250.64980862 Ry
     estimated scf accuracy    <          2.8E-09 Ry

     iteration #  8     ecut=    50.00 Ry     beta= 0.70
     Davidson diagonalization with overlap
     ethr =  1.38E-11,  avg # of iterations =  2.0

     total cpu time spent up to now is      336.3 secs

     End of self-consistent calculation

          k = 0.0000 0.0000 0.0000 (  1835 PWs)   bands (ev):

   -70.5475 -70.5444 -37.3364 -37.3054 -37.3054 -37.3028 -37.3003 -37.3003
    -1.4999   3.7958   4.2644  16.3776  16.3776  16.5018

          k = 0.0000-0.0000 0.0777 (  1864 PWs)   bands (ev):

   -70.5474 -70.5445 -37.3351 -37.3052 -37.3052 -37.3041 -37.3005 -37.3005
    -1.4111   2.7408   5.4722  16.4474  16.4476  16.4911

          k = 0.0000-0.0000 0.1555 (  1870 PWs)   bands (ev):

   -70.5470 -70.5448 -37.3315 -37.3078 -37.3047 -37.3047 -37.3011 -37.3011
    -1.1453   1.6391   7.0324  14.5939  16.6484  16.6484

          k = 0.0000-0.0000 0.2332 (  1876 PWs)   bands (ev):

   -70.5465 -70.5453 -37.3261 -37.3133 -37.3039 -37.3039 -37.3019 -37.3019
    -0.7042   0.6923   8.7421  12.5548  16.9460  16.9759

          k =-0.0000 0.0000-0.3110 (  1870 PWs)   bands (ev):

   -70.5459 -70.5459 -37.3197 -37.3197 -37.3029 -37.3029 -37.3029 -37.3029
    -0.0905  -0.0905  10.5885  10.5885  17.1282  17.1282

          k = 0.0000 0.1450-0.0000 (  1850 PWs)   bands (ev):

   -70.5471 -70.5442 -37.3348 -37.3088 -37.3065 -37.3038 -37.3035 -37.3009
    -1.1916   4.0760   4.5624  12.8254  14.6362  15.3920

          k = 0.0000 0.1450 0.0777 (  1862 PWs)   bands (ev):

   -70.5470 -70.5443 -37.3337 -37.3086 -37.3063 -37.3058 -37.3030 -37.3011
    -1.1032   3.0331   5.7566  12.8973  14.7095  15.3628

          k = 0.0000 0.1450 0.1555 (  1869 PWs)   bands (ev):

   -70.5467 -70.5446 -37.3306 -37.3095 -37.3078 -37.3057 -37.3033 -37.3017
    -0.8383   1.9361   7.3070  13.0962  14.8227  14.9292

          k = 0.0000 0.1450 0.2332 (  1867 PWs)   bands (ev):

   -70.5462 -70.5451 -37.3258 -37.3145 -37.3067 -37.3048 -37.3042 -37.3027
    -0.3987   0.9928   9.0027  12.6843  13.6363  14.6400

          k = 0.0000 0.1450-0.3110 (  1868 PWs)   bands (ev):

   -70.5457 -70.5457 -37.3202 -37.3202 -37.3054 -37.3054 -37.3037 -37.3037
     0.2128   0.2128  10.8229  10.8229  14.0603  14.0603

          k = 0.0000 0.2900-0.0000 (  1870 PWs)   bands (ev):

   -70.5462 -70.5439 -37.3306 -37.3171 -37.3123 -37.3092 -37.3057 -37.3025
    -0.2734   4.9180   5.4201   9.2454  13.3465  13.4731

          k = 0.0000 0.2900 0.0777 (  1871 PWs)   bands (ev):

   -70.5461 -70.5439 -37.3301 -37.3165 -37.3133 -37.3089 -37.3057 -37.3027
    -0.1859   3.9018   6.5731   9.3370  12.8349  13.4206

          k = 0.0000 0.2900 0.1555 (  1872 PWs)   bands (ev):

   -70.5458 -70.5442 -37.3287 -37.3165 -37.3143 -37.3082 -37.3063 -37.3035
     0.0762   2.8200   8.0415   9.6302  11.9374  13.6431

          k = 0.0000 0.2900 0.2332 (  1878 PWs)   bands (ev):

   -70.5455 -70.5446 -37.3263 -37.3197 -37.3122 -37.3076 -37.3071 -37.3046
     0.5111   1.8877   9.4146  10.2736  11.1380  13.5305

          k = 0.0000 0.2900-0.3110 (  1882 PWs)   bands (ev):

   -70.5450 -70.5450 -37.3232 -37.3232 -37.3097 -37.3097 -37.3058 -37.3058
     1.1162   1.1162  10.2618  10.2618  11.8471  11.8471

          k = 0.0000 0.4350-0.0000 (  1880 PWs)   bands (ev):

   -70.5451 -70.5436 -37.3255 -37.3253 -37.3206 -37.3118 -37.3089 -37.3041
     1.2354   5.7274   6.3243   7.2411  10.8719  11.2526

          k = 0.0000 0.4350 0.0777 (  1879 PWs)   bands (ev):

   -70.5451 -70.5437 -37.3282 -37.3225 -37.3210 -37.3115 -37.3087 -37.3044
     1.3214   5.2284   6.1135   8.1669   9.9373  12.2273

          k = 0.0000 0.4350 0.1555 (  1884 PWs)   bands (ev):

   -70.5449 -70.5438 -37.3298 -37.3243 -37.3177 -37.3106 -37.3086 -37.3052
     1.5787   4.2488   6.3153   8.8463   9.7022  12.8710

          k = 0.0000 0.4350 0.2332 (  1869 PWs)   bands (ev):

   -70.5446 -70.5441 -37.3301 -37.3269 -37.3140 -37.3094 -37.3093 -37.3065
     2.0054   3.3507   6.7181   8.0102  11.2513  13.2418

          k = 0.0000 0.4350-0.3110 (  1876 PWs)   bands (ev):

   -70.5444 -70.5444 -37.3291 -37.3291 -37.3111 -37.3111 -37.3079 -37.3079
     2.5982   2.5982   7.2869   7.2869  12.8424  12.8424

          k =-0.0000-0.5800 0.0000 (  1890 PWs)   bands (ev):

   -70.5446 -70.5436 -37.3290 -37.3240 -37.3222 -37.3128 -37.3112 -37.3048
     3.2970   3.3029   8.1341   8.4902   8.7914   9.1869

          k =-0.0000-0.5800 0.0777 (  1890 PWs)   bands (ev):

   -70.5446 -70.5436 -37.3303 -37.3251 -37.3203 -37.3125 -37.3107 -37.3051
     3.3778   3.3866   7.3752   7.4094  10.0231  10.0488

          k =-0.0000-0.5800 0.1555 (  1880 PWs)   bands (ev):

   -70.5444 -70.5437 -37.3319 -37.3276 -37.3169 -37.3116 -37.3100 -37.3060
     3.6176   3.6342   6.3548   6.3829  11.3260  11.5164

          k =-0.0000-0.5800 0.2332 (  1874 PWs)   bands (ev):

   -70.5443 -70.5439 -37.3326 -37.3301 -37.3137 -37.3103 -37.3100 -37.3073
     4.0006   4.0257   5.4829   5.5224  12.5737  13.0103

          k =-0.0000-0.5800-0.3110 (  1876 PWs)   bands (ev):

   -70.5441 -70.5441 -37.3320 -37.3320 -37.3113 -37.3113 -37.3088 -37.3088
     4.3490   4.3490   5.0061   5.0061  13.5103  13.5105

          k = 0.1256 0.2175-0.0000 (  1863 PWs)   bands (ev):

   -70.5465 -70.5439 -37.3319 -37.3137 -37.3115 -37.3070 -37.3050 -37.3027
    -0.5784   4.6371   5.1435  10.9968  11.3569  15.6221

          k = 0.1256 0.2175 0.0777 (  1865 PWs)   bands (ev):

   -70.5464 -70.5440 -37.3312 -37.3133 -37.3119 -37.3078 -37.3047 -37.3029
    -0.4905   3.6139   6.3127  11.0709  11.4320  14.9412

          k = 0.1256 0.2175 0.1555 (  1871 PWs)   bands (ev):

   -70.5461 -70.5443 -37.3291 -37.3140 -37.3121 -37.3083 -37.3048 -37.3036
    -0.2276   2.5267   7.8339  11.2877  11.6477  13.9152

          k = 0.1256 0.2175 0.2332 (  1880 PWs)   bands (ev):

   -70.5457 -70.5447 -37.3258 -37.3177 -37.3104 -37.3081 -37.3054 -37.3045
     0.2089   1.5905   9.4747  11.6172  11.9392  12.7391

          k = 0.1256 0.2175-0.3110 (  1880 PWs)   bands (ev):

   -70.5452 -70.5452 -37.3218 -37.3218 -37.3087 -37.3087 -37.3054 -37.3054
     0.8162   0.8162  11.1568  11.1568  11.9923  11.9923

          k = 0.1256 0.3625-0.0000 (  1869 PWs)   bands (ev):

   -70.5454 -70.5436 -37.3271 -37.3213 -37.3183 -37.3110 -37.3078 -37.3052
     0.6351   5.7616   6.1548   7.9174  10.0504  12.5503

          k = 0.1256 0.3625 0.0777 (  1868 PWs)   bands (ev):

   -70.5454 -70.5437 -37.3276 -37.3204 -37.3184 -37.3114 -37.3074 -37.3054
     0.7217   4.7517   7.1647   8.1288  10.1001  11.8390

          k = 0.1256 0.3625 0.1555 (  1865 PWs)   bands (ev):

   -70.5452 -70.5439 -37.3281 -37.3214 -37.3165 -37.3115 -37.3073 -37.3058
     0.9810   3.6904   7.8821   9.0732  10.0928  11.1761

          k = 0.1256 0.3625 0.2332 (  1873 PWs)   bands (ev):

   -70.5449 -70.5442 -37.3277 -37.3239 -37.3137 -37.3111 -37.3078 -37.3065
     1.4112   2.7715   8.3649   9.5852  10.3007  11.4017

          k = 0.1256 0.3625-0.3110 (  1880 PWs)   bands (ev):

   -70.5445 -70.5445 -37.3262 -37.3262 -37.3117 -37.3117 -37.3075 -37.3075
     2.0095   2.0095   8.9313   8.9313  11.1486  11.1486

          k = 0.1256 0.5075-0.0000 (  1880 PWs)   bands (ev):

   -70.5446 -70.5436 -37.3272 -37.3224 -37.3222 -37.3142 -37.3112 -37.3069
     2.4230   4.7269   7.4470   8.0368   9.3195   9.7414

          k = 0.1256 0.5075 0.0777 (  1876 PWs)   bands (ev):

   -70.5446 -70.5436 -37.3285 -37.3237 -37.3202 -37.3139 -37.3107 -37.3070
     2.5075   4.7934   6.5651   8.6714   8.9067  10.0807

          k = 0.1256 0.5075 0.1555 (  1881 PWs)   bands (ev):

   -70.5444 -70.5437 -37.3302 -37.3261 -37.3175 -37.3127 -37.3103 -37.3071
     2.7600   4.9072   5.6685   7.7329   9.6217  11.0355

          k = 0.1256 0.5075 0.2332 (  1874 PWs)   bands (ev):

   -70.5443 -70.5439 -37.3309 -37.3286 -37.3152 -37.3120 -37.3099 -37.3074
     3.1773   4.4464   5.6416   6.8751  10.1396  11.3672

          k = 0.1256 0.5075-0.3110 (  1870 PWs)   bands (ev):

   -70.5441 -70.5441 -37.3303 -37.3303 -37.3133 -37.3133 -37.3084 -37.3084
     3.7511   3.7511   6.1622   6.1622  10.7244  10.7244

          k = 0.2511 0.4350-0.0000 (  1871 PWs)   bands (ev):

   -70.5446 -70.5436 -37.3239 -37.3222 -37.3219 -37.3148 -37.3111 -37.3100
     2.1280   6.4459   6.7347   7.1684   8.4143  11.4520

          k = 0.2511 0.4350 0.0777 (  1878 PWs)   bands (ev):

   -70.5446 -70.5436 -37.3252 -37.3242 -37.3186 -37.3160 -37.3102 -37.3098
     2.2129   5.9837   6.8127   7.0691   9.1270  10.8680

          k = 0.2511 0.4350 0.1555 (  1875 PWs)   bands (ev):

   -70.5444 -70.5437 -37.3275 -37.3253 -37.3170 -37.3156 -37.3105 -37.3082
     2.4670   5.0767   7.0433   7.2439   9.5625   9.9518

          k = 0.2511 0.4350 0.2332 (  1873 PWs)   bands (ev):

   -70.5443 -70.5439 -37.3285 -37.3269 -37.3166 -37.3147 -37.3097 -37.3076
     2.8881   4.2086   7.4060   7.5787   8.9251   9.1340

          k = 0.2511 0.4350-0.3110 (  1864 PWs)   bands (ev):

   -70.5441 -70.5441 -37.3282 -37.3282 -37.3155 -37.3155 -37.3082 -37.3082
     3.4715   3.4715   7.7562   7.7562   8.6192   8.6192

          k = 0.2511 0.5800-0.0000 (  1873 PWs)   bands (ev):

   -70.5441 -70.5437 -37.3254 -37.3204 -37.3187 -37.3185 -37.3141 -37.3124
     4.1581   4.1803   6.4024   8.9605   9.3352   9.5256

          k = 0.2511 0.5800 0.0777 (  1875 PWs)   bands (ev):

   -70.5441 -70.5437 -37.3260 -37.3221 -37.3208 -37.3153 -37.3139 -37.3115
     4.2381   4.2608   6.4493   8.2518   8.4219  10.2541

          k = 0.2511 0.5800 0.1555 (  1874 PWs)   bands (ev):

   -70.5440 -70.5437 -37.3274 -37.3249 -37.3209 -37.3147 -37.3121 -37.3096
     4.4754   4.4978   6.4980   7.2091   7.7015   9.5440

          k = 0.2511 0.5800 0.2332 (  1880 PWs)   bands (ev):

   -70.5440 -70.5438 -37.3285 -37.3273 -37.3197 -37.3162 -37.3096 -37.3083
     4.8509   4.8668   6.1900   6.3446   7.5904   8.7133

          k = 0.2511 0.5800-0.3110 (  1878 PWs)   bands (ev):

   -70.5439 -70.5439 -37.3285 -37.3285 -37.3180 -37.3180 -37.3083 -37.3083
     5.1689   5.1689   5.8447   5.8447   8.0307   8.0307

     the Fermi energy is     5.4682 ev

!    total energy              =    -250.64980862 Ry
     estimated scf accuracy    <          4.8E-11 Ry
     smearing contrib. (-TS)   =       0.00027089 Ry
     internal energy E=F+TS    =    -250.65007950 Ry

     The total energy is F=E-TS. E is the sum of the following terms:
     one-electron contribution =    -209.27108392 Ry
     hartree contribution      =     100.14848399 Ry
     xc contribution           =     -33.76316442 Ry
     ewald contribution        =    -107.76431514 Ry

     convergence has been achieved in   8 iterations

     Forces acting on atoms (cartesian axes, Ry/au):

     atom    1 type  1   force =     0.00000000    0.00000000   -0.00000000
     atom    2 type  1   force =    -0.00000000   -0.00000000    0.00000000

[...]
        k(   11) = (   0.0000000   0.2899849  -0.0000000), wk =   0.0234375
        k(   12) = (   0.0000000   0.2899849   0.0777669), wk =   0.0468750
        k(   13) = (   0.0000000   0.2899849   0.1555337), wk =   0.0468750
        k(   14) = (   0.0000000   0.2899849   0.2333006), wk =   0.0468750
        k(   15) = (   0.0000000   0.2899849  -0.3110674), wk =   0.0234375
        k(   16) = (   0.0000000   0.4349774  -0.0000000), wk =   0.0234375
        k(   17) = (   0.0000000   0.4349774   0.0777669), wk =   0.0468750
        k(   18) = (   0.0000000   0.4349774   0.1555337), wk =   0.0468750
        k(   19) = (   0.0000000   0.4349774   0.2333006), wk =   0.0468750
        k(   20) = (   0.0000000   0.4349774  -0.3110674), wk =   0.0234375
        k(   21) = (  -0.0000000  -0.5799699   0.0000000), wk =   0.0117188
        k(   22) = (  -0.0000000  -0.5799699   0.0777669), wk =   0.0234375
        k(   23) = (  -0.0000000  -0.5799699   0.1555337), wk =   0.0234375
        k(   24) = (  -0.0000000  -0.5799699   0.2333006), wk =   0.0234375
        k(   25) = (  -0.0000000  -0.5799699  -0.3110674), wk =   0.0117188
        k(   26) = (   0.1255672   0.2174887  -0.0000000), wk =   0.0234375
        k(   27) = (   0.1255672   0.2174887   0.0777669), wk =   0.0468750
        k(   28) = (   0.1255672   0.2174887   0.1555337), wk =   0.0468750
        k(   29) = (   0.1255672   0.2174887   0.2333006), wk =   0.0468750
        k(   30) = (   0.1255672   0.2174887  -0.3110674), wk =   0.0234375
        k(   31) = (   0.1255672   0.3624812  -0.0000000), wk =   0.0468750
        k(   32) = (   0.1255672   0.3624812   0.0777669), wk =   0.0937500
        k(   33) = (   0.1255672   0.3624812   0.1555337), wk =   0.0937500
        k(   34) = (   0.1255672   0.3624812   0.2333006), wk =   0.0937500
        k(   35) = (   0.1255672   0.3624812  -0.3110674), wk =   0.0468750
        k(   36) = (   0.1255672   0.5074736  -0.0000000), wk =   0.0468750
        k(   37) = (   0.1255672   0.5074736   0.0777669), wk =   0.0937500
        k(   38) = (   0.1255672   0.5074736   0.1555337), wk =   0.0937500
        k(   39) = (   0.1255672   0.5074736   0.2333006), wk =   0.0937500
        k(   40) = (   0.1255672   0.5074736  -0.3110674), wk =   0.0468750
        k(   41) = (   0.2511343   0.4349774  -0.0000000), wk =   0.0234375
        k(   42) = (   0.2511343   0.4349774   0.0777669), wk =   0.0468750
        k(   43) = (   0.2511343   0.4349774   0.1555337), wk =   0.0468750
        k(   44) = (   0.2511343   0.4349774   0.2333006), wk =   0.0468750
        k(   45) = (   0.2511343   0.4349774  -0.3110674), wk =   0.0234375
        k(   46) = (   0.2511343   0.5799699  -0.0000000), wk =   0.0234375
        k(   47) = (   0.2511343   0.5799699   0.0777669), wk =   0.0468750
        k(   48) = (   0.2511343   0.5799699   0.1555337), wk =   0.0468750
        k(   49) = (   0.2511343   0.5799699   0.2333006), wk =   0.0468750
        k(   50) = (   0.2511343   0.5799699  -0.3110674), wk =   0.0234375

     Dense  grid:    41601 G-vectors     FFT dimensions: (  45,  45,  64)

     Smooth grid:    14701 G-vectors     FFT dimensions: (  27,  27,  48)

     Estimated max dynamical RAM per process >     191.34 MB

     Initial potential from superposition of free atoms

     starting charge   19.39954, renormalised to   20.00000
     Starting wfcs are   10 randomized atomic wfcs +    4 random wfcs

     total cpu time spent up to now is      386.4 secs

     Self-consistent Calculation

     iteration #  1     ecut=    50.00 Ry     beta= 0.70
     Davidson diagonalization with overlap
     c_bands:  2 eigenvalues not converged
     c_bands:  3 eigenvalues not converged
     c_bands:  2 eigenvalues not converged
     c_bands:  1 eigenvalues not converged
     c_bands:  2 eigenvalues not converged
     c_bands:  1 eigenvalues not converged
     c_bands:  1 eigenvalues not converged
     c_bands:  2 eigenvalues not converged
     c_bands:  1 eigenvalues not converged
     c_bands:  1 eigenvalues not converged
     c_bands:  1 eigenvalues not converged
     c_bands:  1 eigenvalues not converged
     c_bands:  1 eigenvalues not converged
     ethr =  1.00E-06,  avg # of iterations = 15.8

     total cpu time spent up to now is      402.2 secs

     total energy              =    -250.58197672 Ry
     estimated scf accuracy    <       0.29524287 Ry

     iteration #  2     ecut=    50.00 Ry     beta= 0.70
     Davidson diagonalization with overlap
     ethr =  1.48E-03,  avg # of iterations =  2.0

     total cpu time spent up to now is      408.8 secs

     total energy              =    -250.64927748 Ry
     estimated scf accuracy    <       0.00950291 Ry

     iteration #  3     ecut=    50.00 Ry     beta= 0.70
     Davidson diagonalization with overlap
     ethr =  4.75E-05,  avg # of iterations =  1.3

     total cpu time spent up to now is      413.6 secs

     total energy              =    -250.64976525 Ry
     estimated scf accuracy    <       0.00047208 Ry

     iteration #  4     ecut=    50.00 Ry     beta= 0.70
     Davidson diagonalization with overlap
     ethr =  2.36E-06,  avg # of iterations =  3.8

     total cpu time spent up to now is      420.1 secs

     total energy              =    -250.64978488 Ry
     estimated scf accuracy    <       0.00000438 Ry

     iteration #  5     ecut=    50.00 Ry     beta= 0.70
     Davidson diagonalization with overlap
     ethr =  2.19E-08,  avg # of iterations =  2.0

     total cpu time spent up to now is      426.6 secs

     total energy              =    -250.64978674 Ry
     estimated scf accuracy    <       0.00000075 Ry

     iteration #  6     ecut=    50.00 Ry     beta= 0.70
     Davidson diagonalization with overlap
     ethr =  3.77E-09,  avg # of iterations =  2.0

     total cpu time spent up to now is      432.5 secs

     total energy              =    -250.64978691 Ry
     estimated scf accuracy    <       0.00000002 Ry

     iteration #  7     ecut=    50.00 Ry     beta= 0.70
     Davidson diagonalization with overlap
     ethr =  7.92E-11,  avg # of iterations =  2.0

     total cpu time spent up to now is      438.9 secs

     total energy              =    -250.64978691 Ry
     estimated scf accuracy    <          1.2E-10 Ry

     iteration #  8     ecut=    50.00 Ry     beta= 0.70
     Davidson diagonalization with overlap
     ethr =  5.84E-13,  avg # of iterations =  2.2

     total cpu time spent up to now is      445.3 secs

     End of self-consistent calculation

          k = 0.0000 0.0000 0.0000 (  1809 PWs)   bands (ev):

   -70.5451 -70.5420 -37.3340 -37.3030 -37.3030 -37.3004 -37.2979 -37.2979
    -1.4990   3.7989   4.2692  16.3778  16.3778  16.5019

          k = 0.0000-0.0000 0.0778 (  1816 PWs)   bands (ev):

   -70.5450 -70.5421 -37.3327 -37.3029 -37.3029 -37.3017 -37.2981 -37.2981
    -1.4102   2.7440   5.4771  16.4476  16.4485  16.4992

          k = 0.0000-0.0000 0.1555 (  1852 PWs)   bands (ev):

   -70.5447 -70.5425 -37.3292 -37.3054 -37.3023 -37.3023 -37.2987 -37.2987
    -1.1442   1.6417   7.0380  14.6029  16.6489  16.6490

          k = 0.0000-0.0000 0.2333 (  1846 PWs)   bands (ev):

   -70.5442 -70.5430 -37.3237 -37.3109 -37.3015 -37.3015 -37.2995 -37.2995
    -0.7028   0.6944   8.7485  12.5631  16.9389  16.9389

          k =-0.0000 0.0000-0.3111 (  1846 PWs)   bands (ev):

   -70.5436 -70.5436 -37.3173 -37.3173 -37.3005 -37.3005 -37.3005 -37.3005
    -0.0887  -0.0887  10.5959  10.5959  17.1288  17.1288

          k = 0.0000 0.1450-0.0000 (  1822 PWs)   bands (ev):

   -70.5448 -70.5418 -37.3325 -37.3065 -37.3042 -37.3015 -37.3011 -37.2985
    -1.1907   4.0791   4.5671  12.8259  14.6364  15.3929

          k = 0.0000 0.1450 0.0778 (  1831 PWs)   bands (ev):

   -70.5446 -70.5419 -37.3314 -37.3062 -37.3040 -37.3034 -37.3006 -37.2988
    -1.1022   3.0363   5.7614  12.8979  14.7097  15.3640

          k = 0.0000 0.1450 0.1555 (  1838 PWs)   bands (ev):

   -70.5443 -70.5423 -37.3282 -37.3071 -37.3054 -37.3034 -37.3009 -37.2994
    -0.8372   1.9387   7.3126  13.0972  14.8305  14.9296

          k = 0.0000 0.1450 0.2333 (  1837 PWs)   bands (ev):

   -70.5439 -70.5427 -37.3234 -37.3121 -37.3043 -37.3024 -37.3018 -37.3003
    -0.3974   0.9949   9.0090  12.6915  13.6378  14.6413

          k = 0.0000 0.1450-0.3111 (  1844 PWs)   bands (ev):

   -70.5433 -70.5433 -37.3178 -37.3178 -37.3030 -37.3030 -37.3014 -37.3014
     0.2145   0.2145  10.8301  10.8301  14.0615  14.0615

          k = 0.0000 0.2900-0.0000 (  1826 PWs)   bands (ev):

   -70.5438 -70.5415 -37.3283 -37.3147 -37.3099 -37.3068 -37.3033 -37.3001
    -0.2725   4.9211   5.4246   9.2462  13.3468  13.4749

          k = 0.0000 0.2900 0.0778 (  1835 PWs)   bands (ev):

   -70.5437 -70.5416 -37.3278 -37.3142 -37.3109 -37.3066 -37.3033 -37.3003
    -0.1849   3.9049   6.5777   9.3378  12.8370  13.4209

          k = 0.0000 0.2900 0.1555 (  1843 PWs)   bands (ev):

   -70.5435 -70.5418 -37.3263 -37.3141 -37.3120 -37.3058 -37.3039 -37.3011
     0.0772   2.8225   8.0464   9.6315  11.9393  13.6435

          k = 0.0000 0.2900 0.2333 (  1838 PWs)   bands (ev):

   -70.5431 -70.5422 -37.3239 -37.3173 -37.3098 -37.3052 -37.3047 -37.3022
     0.5124   1.8897   9.4181  10.2772  11.1398  13.5372

          k = 0.0000 0.2900-0.3111 (  1842 PWs)   bands (ev):

   -70.5426 -70.5426 -37.3208 -37.3208 -37.3073 -37.3073 -37.3035 -37.3035
     1.1178   1.1178  10.2636  10.2636  11.8534  11.8534

          k = 0.0000 0.4350-0.0000 (  1852 PWs)   bands (ev):

   -70.5427 -70.5412 -37.3231 -37.3229 -37.3182 -37.3094 -37.3066 -37.3017
     1.2362   5.7286   6.3272   7.2453  10.8744  11.2561

          k = 0.0000 0.4350 0.0778 (  1842 PWs)   bands (ev):

   -70.5427 -70.5413 -37.3258 -37.3201 -37.3186 -37.3091 -37.3063 -37.3020
     1.3222   5.2310   6.1147   8.1715   9.9398  12.2305

          k = 0.0000 0.4350 0.1555 (  1837 PWs)   bands (ev):

   -70.5425 -70.5414 -37.3275 -37.3219 -37.3153 -37.3083 -37.3062 -37.3028
     1.5797   4.2512   6.3162   8.8488   9.7071  12.8714

          k = 0.0000 0.4350 0.2333 (  1840 PWs)   bands (ev):

   -70.5423 -70.5417 -37.3277 -37.3246 -37.3117 -37.3070 -37.3069 -37.3041
     2.0067   3.3527   6.7192   8.0120  11.2570  13.2424

          k = 0.0000 0.4350-0.3111 (  1834 PWs)   bands (ev):

   -70.5420 -70.5420 -37.3267 -37.3267 -37.3087 -37.3087 -37.3055 -37.3055
     2.5997   2.5997   7.2883   7.2883  12.8480  12.8480

          k =-0.0000-0.5800 0.0000 (  1858 PWs)   bands (ev):

   -70.5422 -70.5412 -37.3266 -37.3217 -37.3198 -37.3104 -37.3088 -37.3024
     3.2979   3.3036   8.1369   8.4930   8.7962   9.1908

          k =-0.0000-0.5800 0.0778 (  1854 PWs)   bands (ev):

   -70.5422 -70.5412 -37.3279 -37.3228 -37.3180 -37.3101 -37.3083 -37.3027
     3.3787   3.3873   7.3778   7.4124  10.0277  10.0527

          k =-0.0000-0.5800 0.1555 (  1840 PWs)   bands (ev):

   -70.5421 -70.5413 -37.3296 -37.3252 -37.3145 -37.3092 -37.3076 -37.3036
     3.6187   3.6351   6.3572   6.3852  11.3300  11.5217

          k =-0.0000-0.5800 0.2333 (  1836 PWs)   bands (ev):

   -70.5419 -70.5415 -37.3302 -37.3278 -37.3113 -37.3079 -37.3076 -37.3049
     4.0018   4.0268   5.4849   5.5243  12.5771  13.0157

          k =-0.0000-0.5800-0.3111 (  1824 PWs)   bands (ev):

   -70.5417 -70.5417 -37.3296 -37.3296 -37.3088 -37.3088 -37.3064 -37.3064
     4.3504   4.3504   5.0077   5.0077  13.5136  13.5136

          k = 0.1256 0.2175-0.0000 (  1829 PWs)   bands (ev):

   -70.5441 -70.5416 -37.3296 -37.3114 -37.3091 -37.3046 -37.3026 -37.3003
    -0.5775   4.6402   5.1482  10.9973  11.3575  15.6241

          k = 0.1256 0.2175 0.0778 (  1836 PWs)   bands (ev):

   -70.5440 -70.5417 -37.3288 -37.3109 -37.3095 -37.3054 -37.3023 -37.3006
    -0.4896   3.6170   6.3174  11.0715  11.4327  14.9435

          k = 0.1256 0.2175 0.1555 (  1836 PWs)   bands (ev):

   -70.5437 -70.5419 -37.3267 -37.3117 -37.3097 -37.3059 -37.3024 -37.3012
    -0.2265   2.5292   7.8392  11.2884  11.6486  13.9178

          k = 0.1256 0.2175 0.2333 (  1838 PWs)   bands (ev):

   -70.5433 -70.5424 -37.3234 -37.3153 -37.3080 -37.3057 -37.3030 -37.3021
     0.2102   1.5926   9.4806  11.6183  11.9404  12.7431

          k = 0.1256 0.2175-0.3111 (  1844 PWs)   bands (ev):

   -70.5428 -70.5428 -37.3195 -37.3195 -37.3064 -37.3064 -37.3030 -37.3030
     0.8178   0.8178  11.1629  11.1629  11.9934  11.9934

          k = 0.1256 0.3625-0.0000 (  1831 PWs)   bands (ev):

   -70.5431 -70.5413 -37.3247 -37.3189 -37.3159 -37.3087 -37.3054 -37.3028
     0.6359   5.7646   6.1587   7.9187  10.0512  12.5527

          k = 0.1256 0.3625 0.0778 (  1834 PWs)   bands (ev):

   -70.5430 -70.5413 -37.3253 -37.3180 -37.3160 -37.3090 -37.3050 -37.3030
     0.7226   4.7547   7.1678   8.1309  10.1011  11.8415

          k = 0.1256 0.3625 0.1555 (  1834 PWs)   bands (ev):

   -70.5428 -70.5415 -37.3258 -37.3191 -37.3141 -37.3091 -37.3049 -37.3034
     0.9820   3.6929   7.8834   9.0776  10.0943  11.1781

          k = 0.1256 0.3625 0.2333 (  1838 PWs)   bands (ev):

   -70.5425 -70.5418 -37.3254 -37.3215 -37.3113 -37.3088 -37.3054 -37.3041
     1.4125   2.7735   8.3661   9.5869  10.3042  11.4049

          k = 0.1256 0.3625-0.3111 (  1836 PWs)   bands (ev):

   -70.5422 -70.5422 -37.3238 -37.3238 -37.3093 -37.3093 -37.3051 -37.3051
     2.0111   2.0111   8.9326   8.9326  11.1507  11.1507

          k = 0.1256 0.5075-0.0000 (  1841 PWs)   bands (ev):

   -70.5422 -70.5412 -37.3248 -37.3201 -37.3198 -37.3118 -37.3088 -37.3045
     2.4238   4.7276   7.4499   8.0406   9.3217   9.7441

          k = 0.1256 0.5075 0.0778 (  1849 PWs)   bands (ev):

   -70.5422 -70.5412 -37.3261 -37.3214 -37.3179 -37.3115 -37.3083 -37.3046
     2.5083   4.7942   6.5679   8.6739   8.9097  10.0836

          k = 0.1256 0.5075 0.1555 (  1839 PWs)   bands (ev):

   -70.5421 -70.5413 -37.3278 -37.3237 -37.3151 -37.3104 -37.3079 -37.3047
     2.7609   4.9085   5.6705   7.7351   9.6232  11.0401

          k = 0.1256 0.5075 0.2333 (  1847 PWs)   bands (ev):

   -70.5419 -70.5415 -37.3285 -37.3262 -37.3128 -37.3096 -37.3075 -37.3050
     3.1785   4.4482   5.6429   6.8769  10.1408  11.3693

          k = 0.1256 0.5075-0.3111 (  1840 PWs)   bands (ev):

   -70.5417 -70.5417 -37.3279 -37.3279 -37.3109 -37.3109 -37.3060 -37.3060
     3.7526   3.7526   6.1636   6.1636  10.7258  10.7258

          k = 0.2511 0.4350-0.0000 (  1849 PWs)   bands (ev):

   -70.5422 -70.5412 -37.3215 -37.3199 -37.3196 -37.3124 -37.3088 -37.3076
     2.1288   6.4471   6.7354   7.1713   8.4185  11.4545

          k = 0.2511 0.4350 0.0778 (  1836 PWs)   bands (ev):

   -70.5422 -70.5412 -37.3229 -37.3218 -37.3162 -37.3136 -37.3078 -37.3074
     2.2138   5.9860   6.8135   7.0705   9.1316  10.8704

          k = 0.2511 0.4350 0.1555 (  1837 PWs)   bands (ev):

   -70.5421 -70.5413 -37.3251 -37.3229 -37.3146 -37.3132 -37.3081 -37.3059
     2.4680   5.0789   7.0442   7.2449   9.5654   9.9539

          k = 0.2511 0.4350 0.2333 (  1838 PWs)   bands (ev):

   -70.5419 -70.5415 -37.3261 -37.3245 -37.3142 -37.3123 -37.3073 -37.3052
     2.8893   4.2105   7.4071   7.5798   8.9271   9.1357

          k = 0.2511 0.4350-0.3111 (  1836 PWs)   bands (ev):

   -70.5417 -70.5417 -37.3259 -37.3259 -37.3132 -37.3132 -37.3058 -37.3058
     3.4731   3.4731   7.7575   7.7575   8.6208   8.6208

          k = 0.2511 0.5800-0.0000 (  1837 PWs)   bands (ev):

   -70.5417 -70.5413 -37.3231 -37.3180 -37.3163 -37.3162 -37.3117 -37.3100
     4.1589   4.1809   6.4031   8.9632   9.3379   9.5303

          k = 0.2511 0.5800 0.0778 (  1842 PWs)   bands (ev):

   -70.5417 -70.5413 -37.3236 -37.3197 -37.3184 -37.3129 -37.3115 -37.3092
     4.2390   4.2615   6.4501   8.2548   8.4245  10.2574

          k = 0.2511 0.5800 0.1555 (  1838 PWs)   bands (ev):

   -70.5417 -70.5414 -37.3250 -37.3225 -37.3185 -37.3123 -37.3097 -37.3072
     4.4764   4.4987   6.4991   7.2116   7.7035   9.5463

          k = 0.2511 0.5800 0.2333 (  1844 PWs)   bands (ev):

   -70.5416 -70.5414 -37.3262 -37.3249 -37.3173 -37.3138 -37.3072 -37.3059
     4.8521   4.8678   6.1915   6.3465   7.5918   8.7151

          k = 0.2511 0.5800-0.3111 (  1848 PWs)   bands (ev):

   -70.5415 -70.5415 -37.3262 -37.3262 -37.3156 -37.3156 -37.3059 -37.3059
     5.1702   5.1702   5.8462   5.8462   8.0322   8.0322

     the Fermi energy is     5.4709 ev

!    total energy              =    -250.64978692 Ry
     estimated scf accuracy    <          8.1E-12 Ry
     smearing contrib. (-TS)   =       0.00026418 Ry
     internal energy E=F+TS    =    -250.65005110 Ry

     The total energy is F=E-TS. E is the sum of the following terms:
     one-electron contribution =    -209.25662246 Ry
     hartree contribution      =     100.14310022 Ry
     xc contribution           =     -33.76336830 Ry
     ewald contribution        =    -107.77316056 Ry

     convergence has been achieved in   8 iterations

     Forces acting on atoms (cartesian axes, Ry/au):

     atom    1 type  1   force =    -0.00000000   -0.00000000    0.00000000
     atom    2 type  1   force =     0.00000000    0.00000000   -0.00000000

     Total force =     0.000000     Total SCF correction =     0.000000


     Computing stress (Cartesian axis) and pressure

          total   stress  (Ry/bohr**3)                   (kbar)     P=        0.23
   0.00000354  -0.00000000   0.00000000            0.52       -0.00        0.00
  -0.00000000   0.00000354  -0.00000000           -0.00        0.52       -0.00
   0.00000000   0.00000000  -0.00000245            0.00        0.00       -0.36


     Writing output data file qe_tmp/ref_Mg_hcp.save/

     init_run     :     14.00s CPU     14.62s WALL (       2 calls)
     electrons    :    362.22s CPU    385.34s WALL (       7 calls)
     update_pot   :      7.00s CPU      7.06s WALL (       5 calls)
     forces       :      9.30s CPU      9.71s WALL (       7 calls)
     stress       :     31.20s CPU     32.62s WALL (       7 calls)

     Called by init_run:
     wfcinit      :      6.01s CPU      6.11s WALL (       2 calls)
     potinit      :      2.41s CPU      2.47s WALL (       2 calls)
     hinit0       :      5.16s CPU      5.22s WALL (       2 calls)

     Called by electrons:
     c_bands      :    301.21s CPU    313.53s WALL (      53 calls)
     sum_band     :     47.38s CPU     53.43s WALL (      53 calls)
     v_of_rho     :      5.70s CPU      6.06s WALL (      59 calls)
     newd         :      8.71s CPU     13.21s WALL (      59 calls)
     mix_rho      :      0.50s CPU      0.52s WALL (      53 calls)

     Called by c_bands:
     init_us_2    :      6.43s CPU      6.65s WALL (    6100 calls)
     cegterg      :    269.54s CPU    271.05s WALL (    2650 calls)

     Called by *egterg:
     cdiaghg      :      3.20s CPU      3.23s WALL (    8700 calls)
     h_psi        :    184.28s CPU    185.45s WALL (    9100 calls)
     s_psi        :     21.87s CPU     21.97s WALL (    9100 calls)
     g_psi        :      3.93s CPU      3.95s WALL (    6350 calls)

     Called by h_psi:
     h_psi:calbec :     21.42s CPU     21.52s WALL (    9100 calls)
     vloc_psi     :    140.43s CPU    141.41s WALL (    9100 calls)
     add_vuspsi   :     21.67s CPU     21.77s WALL (    9100 calls)

     General routines
     calbec       :     33.12s CPU     33.27s WALL (   13500 calls)
     fft          :      2.28s CPU      2.31s WALL (     815 calls)
     ffts         :      0.13s CPU      0.13s WALL (     112 calls)
     fftw         :    148.70s CPU    149.82s WALL (  236672 calls)
     interpolate  :      0.28s CPU      0.28s WALL (      59 calls)

     Parallel routines

     PWSCF        :   7m 4.83s CPU   7m32.40s WALL


   This run was terminated on:  10:43:23  14Jul2026            

=------------------------------------------------------------------------------=
   JOB DONE.
=------------------------------------------------------------------------------=
