
     Program PWSCF v.6.7MaX starts on 13Jul2026 at 22:26:10 

     This program is part of the open-source Quantum ESPRESSO suite
     for quantum simulation of materials; please cite
         "P. Giannozzi et al., J. Phys.:Condens. Matter 21 395502 (2009);
         "P. Giannozzi et al., J. Phys.:Condens. Matter 29 465901 (2017);
          URL http://www.quantum-espresso.org", 
     in publications or presentations arising from this work. More details at
     http://www.quantum-espresso.org/quote

     Parallel version (MPI), running on     1 processors

     MPI processes distributed on     1 nodes
     Waiting for input...
     Reading input from standard input
Warning: card &CELL ignored
Warning: card    PRESS_CONV_THR   = 0.5 ignored
Warning: card / ignored
Warning: card &FCP ignored
Warning: card / ignored
Warning: card &RISM ignored
Warning: card / ignored

     Current dimensions of program PWSCF are:
     Max number of different atomic species (ntypx) = 10
     Max number of k-points (npk) =  40000
     Max angular momentum in pseudopotentials (lmaxx) =  3

     IMPORTANT: XC functional enforced from input :
     Exchange-correlation= PBE
                           (   1   4   3   4   0   0   0)
     Any further DFT definition will be discarded
     Please, verify this is what you really want


     Subspace diagonalization in iterative solution of the eigenvalue problem:
     a serial algorithm will be used

     Message from routine setup:
     using ibrav=0 with symmetry is DISCOURAGED, use correct ibrav instead

     G-vector sticks info
     --------------------
     sticks:   dense  smooth     PW     G-vecs:    dense   smooth      PW
     Sum         499     241     85                 7119     2445     531



     bravais-lattice index     =            0
     lattice parameter (alat)  =       5.4118  a.u.
     unit-cell volume          =     112.0732 (a.u.)^3
     number of atoms/cell      =            1
     number of atomic types    =            1
     number of electrons       =         3.00
     number of Kohn-Sham states=            6
     kinetic-energy cutoff     =      30.0000  Ry
     charge density cutoff     =     240.0000  Ry
     scf convergence threshold =      1.0E-08
     mixing beta               =       0.7000
     number of iterations used =            8  plain     mixing
     Exchange-correlation= PBE
                           (   1   4   3   4   0   0   0)

     celldm(1)=   5.411765  celldm(2)=   0.000000  celldm(3)=   0.000000
     celldm(4)=   0.000000  celldm(5)=   0.000000  celldm(6)=   0.000000

     crystal axes: (cart. coord. in units of alat)
               a(1) = (   0.000000   0.707107   0.707107 )  
               a(2) = (   0.707107   0.000000   0.707107 )  
               a(3) = (   0.707107   0.707107   0.000000 )  

     reciprocal axes: (cart. coord. in units 2 pi/alat)
               b(1) = ( -0.707107  0.707107  0.707107 )  
               b(2) = (  0.707107 -0.707107  0.707107 )  
               b(3) = (  0.707107  0.707107 -0.707107 )  


     PseudoPot. # 1 for Al read from file:
     ../../../pseudos/Al.us.pbe.z_3.ld1.psl.v1.0.0-low.upf
     MD5 check sum: ce85e4ab7f99e505e5d81ad4c7630c6b
     Pseudo is Ultrasoft + core correction, Zval =  3.0
     Generated using &quot;atomic&quot; code by A. Dal Corso  v.6.3MaX
     Using radial grid of 1135 points,  4 beta functions with: 
                l(1) =   0
                l(2) =   0
                l(3) =   1
                l(4) =   1
     Q(r) pseudized with 0 coefficients 


     atomic species   valence    mass     pseudopotential
        Al             3.00    26.98154     Al( 1.00)

     48 Sym. Ops., with inversion, found



   Cartesian axes

     site n.     atom                  positions (alat units)
         1           Al  tau(   1) = (   0.0000000   0.0000000   0.0000000  )

     number of k points=    29  Marzari-Vanderbilt smearing, width (Ry)=  0.0200
                       cart. coord. in units 2pi/alat
        k(    1) = (   0.0000000   0.0000000   0.0000000), wk =   0.0039062
        k(    2) = (   0.0883883   0.0883883  -0.0883883), wk =   0.0312500
        k(    3) = (   0.1767767   0.1767767  -0.1767767), wk =   0.0312500
        k(    4) = (   0.2651650   0.2651650  -0.2651650), wk =   0.0312500
        k(    5) = (  -0.3535534  -0.3535534   0.3535534), wk =   0.0156250
        k(    6) = (   0.1767767   0.0000000   0.0000000), wk =   0.0234375
        k(    7) = (   0.2651650   0.0883883  -0.0883883), wk =   0.0937500
        k(    8) = (   0.3535534   0.1767767  -0.1767767), wk =   0.0937500
        k(    9) = (  -0.2651650  -0.4419417   0.4419417), wk =   0.0937500
        k(   10) = (  -0.1767767  -0.3535534   0.3535534), wk =   0.0937500
        k(   11) = (  -0.0883883  -0.2651650   0.2651650), wk =   0.0937500
        k(   12) = (   0.0000000  -0.1767767   0.1767767), wk =   0.0468750
        k(   13) = (   0.3535534   0.0000000   0.0000000), wk =   0.0234375
        k(   14) = (   0.4419417   0.0883883  -0.0883883), wk =   0.0937500
        k(   15) = (  -0.1767767  -0.5303301   0.5303301), wk =   0.0937500
        k(   16) = (  -0.0883883  -0.4419417   0.4419417), wk =   0.0937500
        k(   17) = (   0.0000000  -0.3535534   0.3535534), wk =   0.0468750
        k(   18) = (   0.5303301   0.0000000   0.0000000), wk =   0.0234375
        k(   19) = (  -0.0883883  -0.6187184   0.6187184), wk =   0.0937500
        k(   20) = (   0.0000000  -0.5303301   0.5303301), wk =   0.0468750
        k(   21) = (  -0.7071068   0.0000000   0.0000000), wk =   0.0117188
        k(   22) = (   0.3535534   0.1767767   0.0000000), wk =   0.0937500
        k(   23) = (  -0.2651650  -0.4419417   0.6187184), wk =   0.1875000
        k(   24) = (  -0.1767767  -0.3535534   0.5303301), wk =   0.0937500
        k(   25) = (  -0.1767767  -0.5303301   0.7071068), wk =   0.0937500
        k(   26) = (  -0.0883883  -0.4419417   0.6187184), wk =   0.1875000
        k(   27) = (   0.0000000  -0.3535534   0.5303301), wk =   0.0937500
        k(   28) = (  -0.7071068   0.1767767   0.0000000), wk =   0.0468750
        k(   29) = (  -0.7071068   0.3535534   0.0000000), wk =   0.0234375

     Dense  grid:     7119 G-vectors     FFT dimensions: (  27,  27,  27)

     Smooth grid:     2445 G-vectors     FFT dimensions: (  20,  20,  20)

     Estimated max dynamical RAM per process >      10.95 MB

     Initial potential from superposition of free atoms

     starting charge    2.99771, renormalised to    3.00000
     Starting wfcs are    4 randomized atomic wfcs +    2 random wfcs

     total cpu time spent up to now is        0.6 secs

     Self-consistent Calculation

     iteration #  1     ecut=    30.00 Ry     beta= 0.70
     Davidson diagonalization with overlap
     ethr =  1.00E-02,  avg # of iterations =  5.8

     Threshold (ethr) on eigenvalues was too large:
     Diagonalizing with lowered threshold

     Davidson diagonalization with overlap
     ethr =  1.94E-04,  avg # of iterations =  3.8

     total cpu time spent up to now is        1.2 secs

     total energy              =      -5.03830421 Ry
     estimated scf accuracy    <       0.00567519 Ry

     iteration #  2     ecut=    30.00 Ry     beta= 0.70
     Davidson diagonalization with overlap
     ethr =  1.89E-04,  avg # of iterations =  1.2

     total cpu time spent up to now is        1.4 secs

     total energy              =      -5.03829181 Ry
     estimated scf accuracy    <       0.00040533 Ry

     iteration #  3     ecut=    30.00 Ry     beta= 0.70
     Davidson diagonalization with overlap
     ethr =  1.35E-05,  avg # of iterations =  1.8

     total cpu time spent up to now is        1.7 secs

     total energy              =      -5.03831190 Ry
     estimated scf accuracy    <       0.00000129 Ry

     iteration #  4     ecut=    30.00 Ry     beta= 0.70
     Davidson diagonalization with overlap
     ethr =  4.32E-08,  avg # of iterations =  3.7

     total cpu time spent up to now is        2.0 secs

     total energy              =      -5.03831379 Ry
     estimated scf accuracy    <       0.00000004 Ry

     iteration #  5     ecut=    30.00 Ry     beta= 0.70
     Davidson diagonalization with overlap
     ethr =  1.19E-09,  avg # of iterations =  1.5

     total cpu time spent up to now is        2.2 secs

     End of self-consistent calculation

          k = 0.0000 0.0000 0.0000 (   331 PWs)   bands (ev):

    -3.2530  20.4282  20.4282  21.8456  21.8456  21.8456

          k = 0.0884 0.0884-0.0884 (   316 PWs)   bands (ev):

    -2.8305  16.1282  19.4678  19.4678  22.4859  23.3968

          k = 0.1768 0.1768-0.1768 (   311 PWs)   bands (ev):

    -1.5704  11.2690  18.6995  18.6995  22.1339  22.5295

          k = 0.2652 0.2652-0.2652 (   308 PWs)   bands (ev):

     0.5060   6.9774  18.6067  18.6067  20.5510  20.5510

          k =-0.3536-0.3536 0.3536 (   302 PWs)   bands (ev):

     3.2678   3.4722  19.1685  19.1685  19.2821  19.2821

          k = 0.1768 0.0000 0.0000 (   307 PWs)   bands (ev):

    -2.6900  17.7108  17.7108  17.9824  20.6995  22.4259

          k = 0.2652 0.0884-0.0884 (   308 PWs)   bands (ev):

    -1.7099  13.1258  16.6466  18.1697  19.3943  21.9135

          k = 0.3536 0.1768-0.1768 (   317 PWs)   bands (ev):

     0.0928   8.6724  16.2977  17.0279  18.0011  24.0100

          k =-0.2652-0.4419 0.4419 (   312 PWs)   bands (ev):

     2.6856   4.8517  15.4034  16.6696  18.4398  22.5015

          k =-0.1768-0.3536 0.3536 (   308 PWs)   bands (ev):

     1.7373   6.0433  14.5240  17.7615  19.6204  21.6620

          k =-0.0884-0.2652 0.2652 (   309 PWs)   bands (ev):

    -0.5978  10.0705  14.4240  19.5529  21.5008  21.5128

          k = 0.0000-0.1768 0.1768 (   317 PWs)   bands (ev):

    -2.1291  14.2723  15.4973  21.5223  21.7966  23.1452

          k = 0.3536 0.0000 0.0000 (   311 PWs)   bands (ev):

    -1.0141  15.3183  15.3218  15.3218  16.0697  18.7757

          k = 0.4419 0.0884-0.0884 (   316 PWs)   bands (ev):

     0.5044  11.0553  13.4040  14.7241  16.1986  20.1942

          k =-0.1768-0.5303 0.5303 (   311 PWs)   bands (ev):

     2.8153   7.0889  11.4825  14.8504  16.5391  23.8600

          k =-0.0884-0.4419 0.4419 (   307 PWs)   bands (ev):

     3.7614   5.8712  10.3616  15.7010  17.5269  25.4168

          k = 0.0000-0.3536 0.3536 (   315 PWs)   bands (ev):

     1.1910   9.0814  10.5743  17.2751  19.2368  24.7651

          k = 0.5303 0.0000 0.0000 (   322 PWs)   bands (ev):

     1.7302  10.4185  13.6648  13.8806  13.8806  17.3514

          k =-0.0884-0.6187 0.6187 (   314 PWs)   bands (ev):

     3.7265   8.2128  10.0448  13.7625  15.1375  19.2596

          k = 0.0000-0.5303 0.5303 (   308 PWs)   bands (ev):

     5.9645   6.4913   7.4339  14.3684  16.0159  23.4476

          k =-0.7071 0.0000 0.0000 (   302 PWs)   bands (ev):

     4.9283   6.2441  13.1098  13.4007  13.4007  16.8447

          k = 0.3536 0.1768 0.0000 (   311 PWs)   bands (ev):

    -0.4596  11.6830  13.0704  16.5838  19.9431  21.6842

          k =-0.2652-0.4419 0.6187 (   313 PWs)   bands (ev):

     1.5996   7.9770  12.4001  14.4518  20.5584  22.6381

          k =-0.1768-0.3536 0.5303 (   308 PWs)   bands (ev):

     4.3120   4.5601  12.8030  13.2536  21.0731  21.5212

          k =-0.1768-0.5303 0.7071 (   309 PWs)   bands (ev):

     2.2739  10.1231  10.8336  11.7028  18.4539  20.4377

          k =-0.0884-0.4419 0.6187 (   308 PWs)   bands (ev):

     4.7905   6.9164   9.2921  11.4418  19.6289  23.7440

          k = 0.0000-0.3536 0.5303 (   311 PWs)   bands (ev):

     3.8918   7.5218   8.9815  12.5457  20.8377  24.0780

          k =-0.7071 0.1768 0.0000 (   308 PWs)   bands (ev):

     5.4462   6.7842   9.6024  11.0932  17.9448  19.9845

          k =-0.7071 0.3536 0.0000 (   308 PWs)   bands (ev):

     7.0024   7.0024   8.0232   8.9113  23.6066  24.1080

     the Fermi energy is     7.8030 ev

!    total energy              =      -5.03831380 Ry
     estimated scf accuracy    <          3.3E-09 Ry
     smearing contrib. (-TS)   =       0.00005963 Ry
     internal energy E=F+TS    =      -5.03837343 Ry

     The total energy is F=E-TS. E is the sum of the following terms:
     one-electron contribution =       2.93446463 Ry
     hartree contribution      =       0.00647099 Ry
     xc contribution           =      -2.58774343 Ry
     ewald contribution        =      -5.39156561 Ry

     convergence has been achieved in   5 iterations

     Forces acting on atoms (cartesian axes, Ry/au):

     atom    1 type  1   force =     0.00000000    0.00000000    0.00000000

     Total force =     0.000000     Total SCF correction =     0.000000


     Computing stress (Cartesian axis) and pressure

          total   stress  (Ry/bohr**3)                   (kbar)     P=       -5.35
  -0.00003636   0.00000000   0.00000000           -5.35        0.00        0.00
   0.00000000  -0.00003636   0.00000000            0.00       -5.35        0.00
   0.00000000   0.00000000  -0.00003636            0.00        0.00       -5.35


     Writing output data file qe_tmp/conv_cutoff_al_ecut30.save/

     init_run     :      0.31s CPU      0.31s WALL (       1 calls)
     electrons    :      1.00s CPU      1.59s WALL (       1 calls)
     forces       :      0.04s CPU      0.04s WALL (       1 calls)
     stress       :      0.14s CPU      0.14s WALL (       1 calls)

     Called by init_run:
     wfcinit      :      0.04s CPU      0.04s WALL (       1 calls)
     potinit      :      0.02s CPU      0.03s WALL (       1 calls)
     hinit0       :      0.23s CPU      0.23s WALL (       1 calls)

     Called by electrons:
     c_bands      :      0.77s CPU      1.32s WALL (       6 calls)
     sum_band     :      0.13s CPU      0.13s WALL (       6 calls)
     v_of_rho     :      0.08s CPU      0.08s WALL (       6 calls)
     newd         :      0.03s CPU      0.03s WALL (       6 calls)
     mix_rho      :      0.01s CPU      0.01s WALL (       6 calls)

     Called by c_bands:
     init_us_2    :      0.04s CPU      0.04s WALL (     435 calls)
     cegterg      :      0.66s CPU      0.66s WALL (     174 calls)

     Called by *egterg:
     cdiaghg      :      0.05s CPU      0.05s WALL (     661 calls)
     h_psi        :      0.40s CPU      0.40s WALL (     719 calls)
     s_psi        :      0.03s CPU      0.03s WALL (     719 calls)
     g_psi        :      0.02s CPU      0.02s WALL (     516 calls)

     Called by h_psi:
     h_psi:calbec :      0.03s CPU      0.03s WALL (     719 calls)
     vloc_psi     :      0.34s CPU      0.34s WALL (     719 calls)
     add_vuspsi   :      0.03s CPU      0.03s WALL (     719 calls)

     General routines
     calbec       :      0.04s CPU      0.04s WALL (    1038 calls)
     fft          :      0.05s CPU      0.05s WALL (     102 calls)
     ffts         :      0.00s CPU      0.00s WALL (      12 calls)
     fftw         :      0.28s CPU      0.28s WALL (    7008 calls)
     interpolate  :      0.00s CPU      0.00s WALL (       6 calls)

     Parallel routines

     PWSCF        :      1.69s CPU      3.05s WALL


   This run was terminated on:  22:26:14  13Jul2026            

=------------------------------------------------------------------------------=
   JOB DONE.
=------------------------------------------------------------------------------=
