
     Program PWSCF v.6.7MaX starts on 14Jul2026 at 10:45:20 

     This program is part of the open-source Quantum ESPRESSO suite
     for quantum simulation of materials; please cite
         "P. Giannozzi et al., J. Phys.:Condens. Matter 21 395502 (2009);
         "P. Giannozzi et al., J. Phys.:Condens. Matter 29 465901 (2017);
          URL http://www.quantum-espresso.org", 
     in publications or presentations arising from this work. More details at
     http://www.quantum-espresso.org/quote

     Parallel version (MPI), running on     1 processors

     MPI processes distributed on     1 nodes
     Waiting for input...
     Reading input from standard input
Warning: card &CELL ignored
Warning: card    PRESS_CONV_THR   = 0.5 ignored
Warning: card / ignored
Warning: card &FCP ignored
Warning: card / ignored
Warning: card &RISM ignored
Warning: card / ignored

     Current dimensions of program PWSCF are:
     Max number of different atomic species (ntypx) = 10
     Max number of k-points (npk) =  40000
     Max angular momentum in pseudopotentials (lmaxx) =  3

     IMPORTANT: XC functional enforced from input :
     Exchange-correlation= PBE
                           (   1   4   3   4   0   0   0)
     Any further DFT definition will be discarded
     Please, verify this is what you really want


     Subspace diagonalization in iterative solution of the eigenvalue problem:
     a serial algorithm will be used

     Found symmetry operation: I + (  0.0000  0.2500  0.2500)
     This is a supercell, fractional translations are disabled
     Message from routine setup:
     using ibrav=0 with symmetry is DISCOURAGED, use correct ibrav instead

     G-vector sticks info
     --------------------
     sticks:   dense  smooth     PW     G-vecs:    dense   smooth      PW
     Sum        7441    3729   1033               484425   171189   24837



     bravais-lattice index     =            0
     lattice parameter (alat)  =      15.3068  a.u.
     unit-cell volume          =    3586.3416 (a.u.)^3
     number of atoms/cell      =           32
     number of atomic types    =            1
     number of electrons       =        96.00
     number of Kohn-Sham states=           58
     kinetic-energy cutoff     =      50.0000  Ry
     charge density cutoff     =     400.0000  Ry
     scf convergence threshold =      1.0E-08
     mixing beta               =       0.7000
     number of iterations used =            8  plain     mixing
     energy convergence thresh.=      1.0E-04
     force convergence thresh. =      1.0E-03
     Exchange-correlation= PBE
                           (   1   4   3   4   0   0   0)
     nstep                     =           50


     celldm(1)=  15.306782  celldm(2)=   0.000000  celldm(3)=   0.000000
     celldm(4)=   0.000000  celldm(5)=   0.000000  celldm(6)=   0.000000

     crystal axes: (cart. coord. in units of alat)
               a(1) = (   1.000000   0.000000   0.000000 )  
               a(2) = (   0.000000   1.000000   0.000000 )  
               a(3) = (   0.000000   0.000000   1.000000 )  

     reciprocal axes: (cart. coord. in units 2 pi/alat)
               b(1) = (  1.000000  0.000000  0.000000 )  
               b(2) = (  0.000000  1.000000  0.000000 )  
               b(3) = (  0.000000  0.000000  1.000000 )  


     PseudoPot. # 1 for Al read from file:
     ../../../pseudos/Al.us.pbe.z_3.ld1.psl.v1.0.0-low.upf
     MD5 check sum: ce85e4ab7f99e505e5d81ad4c7630c6b
     Pseudo is Ultrasoft + core correction, Zval =  3.0
     Generated using &quot;atomic&quot; code by A. Dal Corso  v.6.3MaX
     Using radial grid of 1135 points,  4 beta functions with: 
                l(1) =   0
                l(2) =   0
                l(3) =   1
                l(4) =   1
     Q(r) pseudized with 0 coefficients 


     atomic species   valence    mass     pseudopotential
        Al             3.00    26.98154     Al( 1.00)

     48 Sym. Ops., with inversion, found



   Cartesian axes

     site n.     atom                  positions (alat units)
         1           Al  tau(   1) = (   0.0000000   0.0000000   0.0000000  )
         2           Al  tau(   2) = (   0.0000000   0.2500000   0.2500000  )
         3           Al  tau(   3) = (   0.2500000   0.0000000   0.2500000  )
         4           Al  tau(   4) = (   0.2500000   0.2500000   0.0000000  )
         5           Al  tau(   5) = (   0.0000000   0.0000000   0.5000000  )
         6           Al  tau(   6) = (   0.0000000   0.2500000   0.7500000  )
         7           Al  tau(   7) = (   0.2500000   0.0000000   0.7500000  )
         8           Al  tau(   8) = (   0.2500000   0.2500000   0.5000000  )
         9           Al  tau(   9) = (   0.0000000   0.5000000   0.0000000  )
        10           Al  tau(  10) = (   0.0000000   0.7500000   0.2500000  )
        11           Al  tau(  11) = (   0.2500000   0.5000000   0.2500000  )
        12           Al  tau(  12) = (   0.2500000   0.7500000   0.0000000  )
        13           Al  tau(  13) = (   0.0000000   0.5000000   0.5000000  )
        14           Al  tau(  14) = (   0.0000000   0.7500000   0.7500000  )
        15           Al  tau(  15) = (   0.2500000   0.5000000   0.7500000  )
        16           Al  tau(  16) = (   0.2500000   0.7500000   0.5000000  )
        17           Al  tau(  17) = (   0.5000000   0.0000000   0.0000000  )
        18           Al  tau(  18) = (   0.5000000   0.2500000   0.2500000  )
        19           Al  tau(  19) = (   0.7500000   0.0000000   0.2500000  )
        20           Al  tau(  20) = (   0.7500000   0.2500000   0.0000000  )
        21           Al  tau(  21) = (   0.5000000   0.0000000   0.5000000  )
        22           Al  tau(  22) = (   0.5000000   0.2500000   0.7500000  )
        23           Al  tau(  23) = (   0.7500000   0.0000000   0.7500000  )
        24           Al  tau(  24) = (   0.7500000   0.2500000   0.5000000  )
        25           Al  tau(  25) = (   0.5000000   0.5000000   0.0000000  )
        26           Al  tau(  26) = (   0.5000000   0.7500000   0.2500000  )
        27           Al  tau(  27) = (   0.7500000   0.5000000   0.2500000  )
        28           Al  tau(  28) = (   0.7500000   0.7500000   0.0000000  )
        29           Al  tau(  29) = (   0.5000000   0.5000000   0.5000000  )
        30           Al  tau(  30) = (   0.5000000   0.7500000   0.7500000  )
        31           Al  tau(  31) = (   0.7500000   0.5000000   0.7500000  )
        32           Al  tau(  32) = (   0.7500000   0.7500000   0.5000000  )

     number of k points=    35  Marzari-Vanderbilt smearing, width (Ry)=  0.0200
                       cart. coord. in units 2pi/alat
        k(    1) = (   0.0000000   0.0000000   0.0000000), wk =   0.0039062
        k(    2) = (   0.0000000   0.0000000   0.1250000), wk =   0.0234375
        k(    3) = (   0.0000000   0.0000000   0.2500000), wk =   0.0234375
        k(    4) = (   0.0000000   0.0000000   0.3750000), wk =   0.0234375
        k(    5) = (   0.0000000   0.0000000  -0.5000000), wk =   0.0117188
        k(    6) = (   0.0000000   0.1250000   0.1250000), wk =   0.0468750
        k(    7) = (   0.0000000   0.1250000   0.2500000), wk =   0.0937500
        k(    8) = (   0.0000000   0.1250000   0.3750000), wk =   0.0937500
        k(    9) = (   0.0000000   0.1250000  -0.5000000), wk =   0.0468750
        k(   10) = (   0.0000000   0.2500000   0.2500000), wk =   0.0468750
        k(   11) = (   0.0000000   0.2500000   0.3750000), wk =   0.0937500
        k(   12) = (   0.0000000   0.2500000  -0.5000000), wk =   0.0468750
        k(   13) = (   0.0000000   0.3750000   0.3750000), wk =   0.0468750
        k(   14) = (   0.0000000   0.3750000  -0.5000000), wk =   0.0468750
        k(   15) = (   0.0000000  -0.5000000  -0.5000000), wk =   0.0117188
        k(   16) = (   0.1250000   0.1250000   0.1250000), wk =   0.0312500
        k(   17) = (   0.1250000   0.1250000   0.2500000), wk =   0.0937500
        k(   18) = (   0.1250000   0.1250000   0.3750000), wk =   0.0937500
        k(   19) = (   0.1250000   0.1250000  -0.5000000), wk =   0.0468750
        k(   20) = (   0.1250000   0.2500000   0.2500000), wk =   0.0937500
        k(   21) = (   0.1250000   0.2500000   0.3750000), wk =   0.1875000
        k(   22) = (   0.1250000   0.2500000  -0.5000000), wk =   0.0937500
        k(   23) = (   0.1250000   0.3750000   0.3750000), wk =   0.0937500
        k(   24) = (   0.1250000   0.3750000  -0.5000000), wk =   0.0937500
        k(   25) = (   0.1250000  -0.5000000  -0.5000000), wk =   0.0234375
        k(   26) = (   0.2500000   0.2500000   0.2500000), wk =   0.0312500
        k(   27) = (   0.2500000   0.2500000   0.3750000), wk =   0.0937500
        k(   28) = (   0.2500000   0.2500000  -0.5000000), wk =   0.0468750
        k(   29) = (   0.2500000   0.3750000   0.3750000), wk =   0.0937500
        k(   30) = (   0.2500000   0.3750000  -0.5000000), wk =   0.0937500
        k(   31) = (   0.2500000  -0.5000000  -0.5000000), wk =   0.0234375
        k(   32) = (   0.3750000   0.3750000   0.3750000), wk =   0.0312500
        k(   33) = (   0.3750000   0.3750000  -0.5000000), wk =   0.0468750
        k(   34) = (   0.3750000  -0.5000000  -0.5000000), wk =   0.0234375
        k(   35) = (  -0.5000000  -0.5000000  -0.5000000), wk =   0.0039062

     Dense  grid:   484425 G-vectors     FFT dimensions: ( 100, 100, 100)

     Smooth grid:   171189 G-vectors     FFT dimensions: (  72,  72,  72)

     Estimated max dynamical RAM per process >       2.00 GB

     Initial potential from superposition of free atoms

     starting charge   95.92671, renormalised to   96.00000
     Starting wfcs are  128 randomized atomic wfcs

     total cpu time spent up to now is      371.7 secs

     Self-consistent Calculation

     iteration #  1     ecut=    50.00 Ry     beta= 0.70
     Davidson diagonalization with overlap
     ethr =  1.00E-02,  avg # of iterations =  3.7

     Threshold (ethr) on eigenvalues was too large:
     Diagonalizing with lowered threshold

     Davidson diagonalization with overlap
     ethr =  1.80E-04,  avg # of iterations =  5.8

     total cpu time spent up to now is     1738.4 secs

     total energy              =    -161.23817657 Ry
     estimated scf accuracy    <       0.17817238 Ry

     iteration #  2     ecut=    50.00 Ry     beta= 0.70
     Davidson diagonalization with overlap
     ethr =  1.86E-04,  avg # of iterations =  1.1

     total cpu time spent up to now is     2128.0 secs

     total energy              =    -161.23973250 Ry
     estimated scf accuracy    <       0.01324574 Ry

     iteration #  3     ecut=    50.00 Ry     beta= 0.70
     Davidson diagonalization with overlap
     ethr =  1.38E-05,  avg # of iterations =  6.3

     total cpu time spent up to now is     2663.6 secs

     total energy              =    -161.24168359 Ry
     estimated scf accuracy    <       0.00003857 Ry

     iteration #  4     ecut=    50.00 Ry     beta= 0.70
     Davidson diagonalization with overlap
     c_bands:  1 eigenvalues not converged
     c_bands:  1 eigenvalues not converged
     c_bands:  1 eigenvalues not converged
     ethr =  4.02E-08,  avg # of iterations = 11.4

     total cpu time spent up to now is     3936.7 secs

     total energy              =    -161.24194489 Ry
     estimated scf accuracy    <       0.00000123 Ry

     iteration #  5     ecut=    50.00 Ry     beta= 0.70
     Davidson diagonalization with overlap
     ethr =  1.28E-09,  avg # of iterations =  7.1

     total cpu time spent up to now is     4684.0 secs

     total energy              =    -161.24194535 Ry
     estimated scf accuracy    <       0.00000338 Ry

     iteration #  6     ecut=    50.00 Ry     beta= 0.70
     Davidson diagonalization with overlap
     ethr =  1.28E-09,  avg # of iterations =  2.8

     total cpu time spent up to now is     5175.6 secs

     total energy              =    -161.24194571 Ry
     estimated scf accuracy    <       0.00000004 Ry

     iteration #  7     ecut=    50.00 Ry     beta= 0.70
     Davidson diagonalization with overlap
     ethr =  4.13E-11,  avg # of iterations =  6.9

     total cpu time spent up to now is     5963.1 secs

     total energy              =    -161.24194575 Ry
     estimated scf accuracy    <       0.00000001 Ry

     iteration #  8     ecut=    50.00 Ry     beta= 0.70
     Davidson diagonalization with overlap
     ethr =  1.30E-11,  avg # of iterations =  2.0

     total cpu time spent up to now is     6388.5 secs

     End of self-consistent calculation

          k = 0.0000 0.0000 0.0000 ( 21367 PWs)   bands (ev):

    -3.2546  -1.0157  -1.0157  -1.0157  -1.0157  -1.0157  -1.0157   1.1893
     1.1893   1.1893   1.1893   1.1893   1.1893   1.1893   1.1893   1.1893
     1.1893   1.1893   1.1893   3.2668   3.2668   3.2668   3.2668   3.4691
     3.4691   3.4691   3.4691   4.9263   4.9263   4.9263   6.2418   6.2418
     6.2418   6.9996   6.9996   6.9996   6.9996   6.9996   6.9996   6.9996
     6.9996   6.9996   6.9996   6.9996   6.9996   8.0215   8.0215   8.0215
     8.0215   8.0215   8.0215   8.9087   8.9087   8.9087   8.9087   8.9087
     8.9087   9.0778

          k = 0.0000 0.0000 0.1250 ( 21419 PWs)   bands (ev):

    -3.2194  -1.5372  -0.9809  -0.9809  -0.9809  -0.9809  -0.4270   0.6756
     0.6756   0.6756   0.6756   1.2235   1.2235   1.2235   1.2235   1.7691
     1.7691   1.7691   1.7691   2.8511   2.8511   2.8511   2.8511   3.9503
     3.9503   3.9503   3.9503   4.3535   4.9587   4.9587   6.2759   6.2759
     6.4499   6.4499   6.4499   6.4499   6.5131   6.5131   6.8757   7.0320
     7.0320   7.0320   7.0320   7.5513   7.5513   7.7995   7.7995   8.3098
     8.3098   8.3098   8.3098   8.5652   8.5652   8.5652   8.5901   8.5904
     8.5904   8.5904

          k = 0.0000 0.0000 0.2500 ( 21418 PWs)   bands (ev):

    -3.1137  -1.9908  -0.8769  -0.8769  -0.8769  -0.8769   0.2277   0.2289
     0.2289   0.2289   0.2289   1.3261   1.3261   1.3261   1.3261   2.4137
     2.4137   2.4137   2.4137   2.4145   2.4145   2.4145   2.4145   3.4569
     4.5829   4.5829   4.5829   4.5829   5.0557   5.0557   5.5816   5.5816
     5.5816   5.5816   6.0917   6.0917   6.3780   6.3780   7.1293   7.1293
     7.1293   7.1293   7.4282   7.4282   7.7138   7.7138   7.7138   7.7138
     7.9555   8.1681   8.1681   8.1681   8.1681   8.1685   8.1685   8.5332
     8.5332   8.5332

          k = 0.0000 0.0000 0.3750 ( 21446 PWs)   bands (ev):

    -2.9376  -2.3758  -0.7036  -0.7035  -0.7035  -0.7035  -0.1503  -0.1503
    -0.1503  -0.1503   0.9469   1.4969   1.4969   1.4969   1.4969   2.0417
     2.0417   2.0417   2.0417   2.5685   3.1214   3.1214   3.1214   3.1214
     4.7138   4.7138   4.7138   4.7138   5.2174   5.2174   5.2813   5.2813
     5.2813   5.2813   5.7354   5.7354   6.5472   6.5472   6.8560   6.8560
     6.8560   6.8560   7.0785   7.0785   7.2916   7.2916   7.2916   7.2916
     7.8109   7.8109   7.8109   7.8109   8.7331   8.7331   8.7331   8.7331
     8.8510   8.8510

          k = 0.0000 0.0000-0.5000 ( 21426 PWs)   bands (ev):

    -2.6916  -2.6916  -0.4613  -0.4613  -0.4613  -0.4613  -0.4612  -0.4612
    -0.4612  -0.4612   1.7285   1.7285   1.7356   1.7356   1.7356   1.7356
     1.7356   1.7356   1.7356   1.7356   3.8898   3.8898   3.8898   3.8898
     3.8898   3.8898   3.8898   3.8898   5.4440   5.4440   5.4440   5.4440
     6.0408   6.0408   6.0408   6.0409   6.0409   6.0409   6.0409   6.0409
     6.7819   6.7819   6.7820   6.7820   7.5188   7.5188   7.5188   7.5188
     7.5188   7.5188   7.5188   7.5188   8.9793   8.9793   8.9793   8.9793
     8.9793   8.9793

          k = 0.0000 0.1250 0.1250 ( 21407 PWs)   bands (ev):

    -3.1841  -1.5024  -1.5024  -0.9462  -0.9462  -0.3924  -0.3924   0.1601
     0.7100   0.7100   0.7100   0.7100   1.2575   1.2575   1.8031   1.8031
     1.8031   1.8031   2.3464   2.3469   2.3469   3.3321   3.3321   3.5381
     3.5381   4.3865   4.3865   4.5164   4.5164   4.9910   5.9631   5.9631
     6.3099   6.4031   6.4031   6.5455   6.5455   6.5771   6.5771   6.9090
     6.9090   6.9867   6.9867   7.5838   7.5838   7.9413   7.9413   8.0748
     8.0748   8.0748   8.0748   8.1031   8.3451   8.3451   8.7496   8.7496
     9.1244   9.2884

          k = 0.0000 0.1250 0.2500 ( 21406 PWs)   bands (ev):

    -3.0784  -1.9559  -1.3979  -0.8422  -0.8422  -0.2888  -0.2883   0.2621
     0.2633   0.2633   0.8125   0.8129   0.8129   1.9044   1.9053   1.9053
     1.9060   1.9060   2.4475   2.4475   2.9853   2.9853   2.9882   3.4904
     4.0843   4.0843   4.4855   5.0879   5.0880   5.1500   5.1500   5.5381
     5.6100   5.6100   6.1241   6.1346   6.4117   6.6039   6.6039   6.6427
     7.0089   7.2202   7.2202   7.3625   7.6492   7.6492   7.6810   7.6812
     7.7799   7.9881   8.0287   8.0720   8.2009   8.2718   8.2718   8.7205
     8.9713   9.0998

          k = 0.0000 0.1250 0.3750 ( 21434 PWs)   bands (ev):

    -2.9025  -2.3408  -1.2240  -0.6689  -0.6689  -0.6688  -0.1162  -0.1158
    -0.1158   0.4349   0.9811   0.9843   0.9843   1.5313   1.5313   2.0753
     2.0753   2.6023   2.6150   2.6171   2.6171   3.1551   3.1551   3.6927
     4.2146   4.6504   4.7460   4.7460   4.7816   4.7816   5.1771   5.2498
     5.2756   5.7677   5.8469   5.8469   6.3597   6.3597   6.5801   6.7648
     6.7648   6.8049   7.1008   7.1745   7.2887   7.2887   7.3240   7.4168
     7.4168   7.6930   7.8435   8.2488   8.3632   8.3655   8.7911   8.8835
     9.2624   9.3149

          k = 0.0000 0.1250-0.5000 ( 21398 PWs)   bands (ev):

    -2.6565  -2.6565  -0.9808  -0.9808  -0.4267  -0.4267  -0.4266  -0.4266
     0.1252   0.1252   1.2238   1.2238   1.2239   1.2239   1.7626   1.7626
     2.3128   2.3128   2.3128   2.3128   3.3866   3.3866   3.9230   3.9230
     3.9230   3.9230   4.4570   4.4571   4.8810   4.8810   5.4763   5.4763
     5.5425   5.5425   5.5425   5.5425   6.6042   6.6042   6.6042   6.6042
     6.8126   6.8126   6.9938   6.9938   6.9938   6.9938   7.0319   7.0320
     7.4039   7.4039   8.0708   8.0709   8.4877   8.4877   9.0991   9.0991
     9.5267   9.5268

          k = 0.0000 0.2500 0.2500 ( 21408 PWs)   bands (ev):

    -2.9728  -1.8511  -1.8511  -0.7382  -0.7382  -0.7380   0.3653   0.3653
     0.3665   0.3665   0.3665   0.3665   1.4615   1.4615   1.4631   1.4631
     2.5491   2.5491   2.5491   2.5491   3.5282   3.5282   3.5908   3.5908
     3.6268   3.7442   3.7442   4.6574   4.6574   5.1851   5.6009   5.6009
     5.7819   5.7819   5.8478   5.8478   6.2213   6.2213   6.5122   6.7275
     6.7275   6.7916   6.7916   6.7916   6.7916   7.2590   7.6791   7.6791
     8.0857   8.0857   8.2984   8.2984   8.7271   8.8931   8.8931   8.8931
     8.8931   9.0143

          k = 0.0000 0.2500 0.3750 ( 21434 PWs)   bands (ev):

    -2.7970  -2.2357  -1.6766  -1.1197  -0.5650  -0.5650  -0.0123  -0.0123
     0.5371   0.5384   0.5384   1.0838   1.0856   1.0871   1.0871   2.1743
     2.7037   2.7181   2.7181   3.2531   3.2531   3.2558   3.2558   3.7580
     3.7800   4.2918   4.3272   4.3514   4.3514   4.8395   4.8395   5.3469
     5.8649   5.8950   5.9072   5.9072   5.9290   5.9290   6.3833   6.4287
     6.4287   6.4766   6.4766   6.6772   6.9021   7.0979   7.6297   7.8274
     8.0411   8.0411   8.2471   8.3595   8.4608   8.7415   8.9807   8.9810
     9.0615   9.2757

          k = 0.0000 0.2500-0.5000 ( 21376 PWs)   bands (ev):

    -2.5512  -2.5512  -1.4327  -1.4327  -0.3230  -0.3230  -0.3229  -0.3229
     0.7773   0.7773   0.7787   0.7787   0.7787   0.7787   1.8646   1.8646
     2.9487   2.9487   2.9537   2.9537   2.9537   2.9537   3.9918   3.9918
     4.0221   4.0221   4.0221   4.0221   5.0860   5.0860   5.1106   5.1106
     5.1106   5.1106   5.5734   5.5735   6.1326   6.1326   6.1327   6.1327
     6.6103   6.6103   6.8982   6.8982   7.2314   7.2314   7.2314   7.2314
     8.0585   8.0585   8.2741   8.2741   8.4689   8.4690   8.6883   8.6883
     9.7290   9.7294

          k = 0.0000 0.3750 0.3750 ( 21364 PWs)   bands (ev):

    -2.6214  -2.0608  -2.0608  -1.5024  -0.3921  -0.3921   0.1600   0.1600
     0.1600   0.1600   0.7102   0.7102   1.2547   1.2547   1.8004   1.8004
     2.8724   2.8724   3.4110   3.4110   3.4229   3.4229   3.4229   3.4229
     3.8545   3.8545   4.0853   4.0853   4.8946   4.8946   5.0222   5.1515
     5.1515   5.5087   5.5651   5.5651   5.5651   5.5651   6.0269   6.0269
     6.5454   6.5499   6.5499   6.8303   7.1688   7.1688   7.4949   7.4949
     7.9937   8.2300   8.7274   8.7274   8.7274   8.7274   9.1435   9.1435
     9.6633   9.6636

          k = 0.0000 0.3750-0.5000 ( 21380 PWs)   bands (ev):

    -2.3759  -2.3758  -1.8162  -1.8162  -0.1503  -0.1503  -0.1503  -0.1503
     0.4010   0.4010   0.4010   0.4010   1.4937   1.4937   2.0345   2.0345
     2.5770   2.5770   3.1083   3.1083   3.6533   3.6533   3.6533   3.6533
     4.1836   4.1836   4.1836   4.1836   4.7492   4.7492   4.7492   4.7492
     5.2723   5.2723   5.2724   5.2724   5.7353   5.7354   5.7712   5.7712
     6.2537   6.2537   6.9644   6.9644   7.5275   7.5275   7.6987   7.6988
     7.9207   7.9207   7.9207   7.9207   9.3711   9.3711   9.4732   9.4733
     9.4733   9.4733

          k = 0.0000-0.5000-0.5000 ( 21392 PWs)   bands (ev):

    -2.1308  -2.1307  -2.1307  -2.1307   0.0911   0.0911   0.0911   0.0911
     0.0911   0.0911   0.0912   0.0912   2.2721   2.2721   2.2721   2.2721
     2.2721   2.2721   2.2721   2.2721   4.3106   4.3106   4.3106   4.3106
     4.3106   4.3106   4.3106   4.3107   4.5572   4.5572   4.5573   4.5573
     4.5573   4.5573   4.5573   4.5573   5.9620   5.9621   5.9621   5.9621
     6.4890   6.4890   6.4890   6.4890   7.4313   7.4314   7.4314   7.4314
     8.6696   8.6696   8.6696   8.6696   8.6696   8.6696   8.6696   8.6696
    10.1192  10.1192

          k = 0.1250 0.1250 0.1250 ( 21410 PWs)   bands (ev):

    -3.1489  -1.4676  -1.4676  -1.4676  -0.3579  -0.3579  -0.3579   0.1945
     0.1945   0.1945   1.2916   1.2916   1.2916   1.2916   1.2916   1.2916
     1.8381   2.3803   2.3803   2.3803   2.9181   2.9181   2.9181   4.0175
     4.0175   4.0175   4.4195   4.4195   4.4195   5.0839   5.9930   5.9930
     5.9930   5.9930   5.9930   5.9930   6.9423   6.9423   6.9423   7.0471
     7.0471   7.0471   7.0471   7.0471   7.0471   7.5840   7.5840   7.5840
     8.5038   8.5038   8.5038   8.5038   8.5038   8.5038   8.6301   8.6301
     8.6301   8.6301

          k = 0.1250 0.1250 0.2500 ( 21399 PWs)   bands (ev):

    -3.0432  -1.9210  -1.3631  -1.3631  -0.2542  -0.2542  -0.2537  -0.2537
     0.2965   0.2978   0.8468   0.8468   1.3942   1.3942   1.3950   1.9384
     1.9384   2.4819   2.4819   2.4819   3.0219   3.0219   3.4628   3.5239
     3.6756   4.5185   4.5185   4.6496   4.6496   5.1199   5.1200   5.5702
     5.5702   5.7162   6.0291   6.0291   6.2513   6.2513   6.7259   7.0418
     7.0418   7.1530   7.1530   7.1581   7.1582   7.6237   7.6237   7.7790
     7.7790   8.0206   8.1598   8.1598   8.2049   8.2049   8.6565   8.6565
     8.8286   9.2494

          k = 0.1250 0.1250 0.3750 ( 21424 PWs)   bands (ev):

    -2.8673  -2.3058  -1.1892  -1.1892  -0.6341  -0.6341  -0.0817  -0.0817
     0.4692   0.4692   0.4698   1.0154   1.0188   1.5648   1.5648   2.1094
     2.1094   2.6361   2.6488   2.6488   2.6510   3.1866   3.7260   3.7260
     4.2477   4.2477   4.2842   4.6833   4.6833   5.2097   5.2097   5.3036
     5.3036   5.3477   5.3477   5.8628   6.2792   6.2792   6.4112   6.7978
     6.7978   6.9215   6.9215   7.2063   7.2063   7.3189   7.3189   7.7011
     7.7011   7.8445   7.8445   7.9763   8.4144   8.4144   8.8380   8.8380
     9.3771   9.3773

          k = 0.1250 0.1250-0.5000 ( 21386 PWs)   bands (ev):

    -2.6214  -2.6213  -0.9461  -0.9461  -0.9461  -0.9461   0.1596   0.1596
     0.1596   0.1596   0.7102   0.7103   1.7966   1.7966   1.8034   1.8034
     1.8034   1.8034   2.8868   2.8868   3.4201   3.4201   3.4201   3.4201
     4.4893   4.4893   4.4893   4.4894   4.9139   4.9139   4.9139   4.9139
     5.0439   5.0439   6.1068   6.1068   6.1068   6.1068   6.5037   6.5037
     6.5038   6.5038   7.1663   7.1663   7.4323   7.4323   7.4323   7.4323
     7.5492   7.5492   7.5492   7.5492   9.0764   9.0764   9.1336   9.1341
     9.1345   9.1345

          k = 0.1250 0.2500 0.2500 ( 21396 PWs)   bands (ev):

    -2.9377  -1.8162  -1.8162  -1.2588  -0.7034  -0.1507  -0.1501  -0.1501
     0.3996   0.3996   0.9496   0.9496   0.9504   1.4956   1.4956   2.0405
     2.0405   2.0415   3.1189   3.1189   3.1228   3.1228   3.6243   3.6243
     3.6601   4.2187   4.2187   4.6174   4.6903   4.6903   5.2133   5.2133
     5.2824   5.6648   5.6648   6.2970   6.2970   6.2990   6.2990   6.3465
     6.7324   6.8023   6.8023   7.1397   7.3510   7.3510   7.7653   7.7653
     8.1174   8.1174   8.2523   8.2523   8.4014   8.4014   8.8245   8.8245
     9.1490   9.1493

          k = 0.1250 0.2500 0.3750 ( 21425 PWs)   bands (ev):

    -2.7619  -2.2007  -1.6418  -1.0850  -1.0849  -0.5303   0.0218   0.0224
     0.5714   0.5723   0.5730   1.1180   1.1198   1.1208   1.6672   2.2083
     2.2103   2.7374   2.7501   2.7514   3.2902   3.7240   3.7914   3.8134
     3.8254   3.9492   4.3249   4.3463   4.3596   4.7821   4.9150   5.2801
     5.3073   5.4324   5.5348   5.7710   5.9348   5.9787   6.0096   6.3728
     6.4608   6.4914   6.9882   7.0393   7.2992   7.4171   7.5471   7.9367
     7.9609   8.2760   8.4043   8.4181   8.4643   8.5991   8.8675   8.9502
     9.0859   9.0979

          k = 0.1250 0.2500-0.5000 ( 21404 PWs)   bands (ev):

    -2.5161  -2.5161  -1.3979  -1.3979  -0.8421  -0.8420   0.2629   0.2629
     0.2635   0.2635   0.8116   0.8116   1.3601   1.3602   1.8986   1.8986
     2.4475   2.4475   2.9824   2.9824   3.5205   3.5205   3.5211   3.5211
     4.0251   4.0251   4.5832   4.5832   4.6153   4.6153   5.0122   5.0123
     5.1141   5.1141   5.6435   5.6435   5.6750   5.6750   6.0830   6.0830
     6.6912   6.6913   6.7353   6.7353   7.5006   7.5006   7.7918   7.7918
     8.1685   8.1686   8.3262   8.3262   8.4829   8.4829   8.6511   8.6512
     9.2499   9.2499

          k = 0.1250 0.3750 0.3750 ( 21399 PWs)   bands (ev):

    -2.5863  -2.0258  -2.0258  -1.4675  -0.9114  -0.3573  -0.3573   0.1941
     0.1947   0.7440   0.7440   1.2889   1.2889   1.2918   1.8344   1.8344
     2.9061   2.9061   2.9188   2.9188   3.4445   3.4445   3.4524   3.4524
     3.9875   3.9875   4.5070   4.5070   4.5526   4.5526   4.9464   5.0503
     5.0726   5.0726   5.4676   5.4676   5.6036   5.6036   6.0175   6.1271
     6.1271   6.6295   6.6295   6.6724   7.4336   7.7295   8.0681   8.0681
     8.2347   8.2347   8.2827   8.5873   8.6139   8.6139   9.1469   9.1469
     9.2838   9.2838

          k = 0.1250 0.3750-0.5000 ( 21438 PWs)   bands (ev):

    -2.3408  -2.3408  -1.7813  -1.7813  -0.6688  -0.6687  -0.1156  -0.1156
     0.4349   0.4349   0.9839   0.9839   1.5278   1.5278   2.0685   2.0685
     2.6108   2.6108   3.1419   3.1419   3.1539   3.1539   3.6871   3.6871
     4.1153   4.1153   4.3558   4.3558   4.6353   4.6353   4.8890   4.8890
     5.1757   5.1757   5.3102   5.3102   5.6413   5.6413   5.8299   5.8299
     5.8848   5.8848   7.2992   7.2992   7.4261   7.4261   7.8460   7.8461
     8.2913   8.2913   8.4793   8.4793   8.8502   8.8502   8.9821   8.9821
     9.3165   9.3167

          k = 0.1250-0.5000-0.5000 ( 21408 PWs)   bands (ev):

    -2.0958  -2.0958  -2.0958  -2.0957  -0.4265  -0.4265  -0.4265  -0.4265
     0.6753   0.6753   0.6753   0.6754   2.3060   2.3060   2.3060   2.3060
     2.3060   2.3060   2.3060   2.3060   3.9165   3.9165   3.9165   3.9165
     3.9165   3.9165   3.9165   3.9165   5.0163   5.0163   5.0163   5.0163
     5.0163   5.0163   5.0163   5.0163   5.4018   5.4018   5.4018   5.4019
     6.5696   6.5697   6.5697   6.5697   8.0047   8.0047   8.0047   8.0048
     8.1766   8.1766   8.1766   8.1766   9.2262   9.2264   9.2265   9.2266
     9.5898   9.5898

          k = 0.2500 0.2500 0.2500 ( 21428 PWs)   bands (ev):

    -2.8321  -1.7115  -1.7115  -1.7115  -0.5995  -0.5995  -0.5995   0.5027
     0.5027   0.5027   0.5044   1.5980   1.5980   1.5980   1.5980   1.5980
     1.5980   2.6839   2.6839   2.6839   3.7246   3.7246   3.7246   3.7595
     3.7595   3.7595   4.7884   4.7884   4.7884   4.7884   4.7884   4.7884
     4.8494   4.8494   4.8494   5.8687   5.8687   5.8687   6.9138   6.9138
     6.9138   6.9138   6.9138   6.9138   6.9749   7.9741   7.9741   7.9741
     7.9741   7.9741   7.9741   8.2104   8.2104   8.2104   9.2894   9.2894
     9.2894   9.2894

          k = 0.2500 0.2500 0.3750 ( 21397 PWs)   bands (ev):

    -2.6565  -2.0958  -1.5372  -1.5372  -0.9808  -0.9808  -0.4264   0.1259
     0.6744   0.6744   1.2206   1.2224   1.2224   1.7684   1.7684   2.3101
     2.3101   2.3120   2.3120   2.8387   3.3854   3.8916   3.8916   3.9134
     3.9134   3.9218   4.4243   4.4243   4.4537   4.4537   4.4867   4.9483
     4.9483   5.0059   5.5112   5.5112   5.5464   5.5464   6.0623   6.0623
     7.0822   7.0822   7.1178   7.1178   7.5881   7.5881   7.6117   7.6117
     7.6654   8.3504   8.3504   8.6595   8.6595   8.9507   8.9507   9.2177
     9.2177   9.2203

          k = 0.2500 0.2500-0.5000 ( 21422 PWs)   bands (ev):

    -2.4109  -2.4109  -1.2935  -1.2935  -1.2935  -1.2935  -0.1846  -0.1845
     0.9144   0.9144   0.9144   0.9144   2.0006   2.0006   2.0065   2.0065
     2.0066   2.0066   3.0834   3.0834   3.0834   3.0834   4.0501   4.0501
     4.1250   4.1250   4.1250   4.1250   4.2883   4.2883   5.0858   5.0858
     5.0858   5.0858   5.3415   5.3415   5.3415   5.3415   6.3043   6.3043
     6.3043   6.3043   7.3144   7.3144   7.3144   7.3144   8.2600   8.2600
     8.2600   8.2600   8.4155   8.4155   8.7338   8.7338   8.7339   8.7339
     9.4048   9.4049

          k = 0.2500 0.3750 0.3750 ( 21425 PWs)   bands (ev):

    -2.4810  -1.9210  -1.9210  -1.3631  -1.3631  -0.8073  -0.8073  -0.2536
     0.8459   1.3913   1.3913   1.3933   1.3933   1.9365   1.9365   1.9386
     2.4795   2.4795   3.0072   3.0072   3.0192   3.0192   3.5451   3.5451
     4.0583   4.0792   4.0792   4.5052   4.5052   4.5890   4.5890   4.7563
     4.7563   5.0209   5.1810   5.1810   5.2765   6.2247   6.2247   6.2412
     6.7428   6.7428   6.7539   6.7539   7.7651   7.7651   7.8065   7.8065
     8.2037   8.2974   8.2974   8.3535   8.6817   9.1134   9.1134   9.2349
     9.2349   9.3586

          k = 0.2500 0.3750-0.5000 ( 21448 PWs)   bands (ev):

    -2.2357  -2.2357  -1.6767  -1.6766  -1.1197  -1.1197  -0.5648  -0.5648
     1.0856   1.0856   1.6301   1.6301   1.6321   1.6321   2.1703   2.1703
     2.7122   2.7122   2.7161   2.7162   3.2428   3.2428   3.2515   3.2515
     3.7828   3.7828   4.2910   4.2911   4.3072   4.3072   4.8157   4.8157
     4.8866   4.8866   5.4146   5.4146   5.9392   5.9392   5.9393   5.9394
     6.4560   6.4560   6.9963   6.9963   7.4795   7.4795   7.9997   7.9997
     8.5018   8.5018   8.5551   8.5551   8.8312   8.8312   9.0429   9.0429
     9.1009   9.1010

          k = 0.2500-0.5000-0.5000 ( 21452 PWs)   bands (ev):

    -1.9909  -1.9909  -1.9909  -1.9908  -0.8767  -0.8767  -0.8767  -0.8766
     1.3249   1.3250   1.3250   1.3250   2.4076   2.4076   2.4076   2.4077
     2.4077   2.4077   2.4077   2.4077   3.4857   3.4857   3.4857   3.4857
     3.4858   3.4858   3.4858   3.4858   4.5225   4.5225   4.5225   4.5225
     5.6415   5.6415   5.6415   5.6415   5.6415   5.6415   5.6415   5.6415
     6.6835   6.6835   6.6835   6.6835   7.7481   7.7482   7.7482   7.7482
     8.7436   8.7436   8.7436   8.7436   8.7436   8.7436   8.7436   8.7436
     9.0514   9.0515

          k = 0.3750 0.3750 0.3750 ( 21434 PWs)   bands (ev):

    -2.3058  -1.7464  -1.7464  -1.7464  -1.1892  -1.1892  -1.1892  -0.6340
     1.5619   1.5619   1.5619   2.1064   2.1064   2.1064   2.1064   2.1064
     2.1064   2.6485   2.6485   2.6485   3.1755   3.1755   3.1755   3.7123
     3.7123   3.7123   3.7123   3.7123   3.7123   4.2405   4.2405   4.2405
     5.3508   5.3508   5.3508   5.8760   5.8760   5.8760   6.9121   6.9121
     6.9121   6.9121   6.9121   6.9121   7.4432   7.4432   7.4432   7.4432
     7.4432   7.4432   8.4532   8.4532   8.4532   8.9962   8.9962   8.9962
     9.0391   9.7827

          k = 0.3750 0.3750-0.5000 ( 21392 PWs)   bands (ev):

    -2.0608  -2.0608  -1.5024  -1.5024  -1.5024  -1.5023  -0.9461  -0.9460
     1.8004   1.8004   1.8004   1.8004   2.3399   2.3399   2.3439   2.3439
     2.3440   2.3440   2.8810   2.8810   2.8810   2.8810   3.4107   3.4107
     3.4108   3.4108   3.4186   3.4186   3.9454   3.9454   3.9454   3.9454
     5.5779   5.5779   6.1019   6.1019   6.1019   6.1019   6.6319   6.6319
     6.6319   6.6319   7.1451   7.1451   7.1451   7.1451   7.6584   7.6584
     7.6584   7.6584   8.1923   8.1923   8.1923   8.1923   8.6963   8.6964
     9.7840   9.7843

          k = 0.3750-0.5000-0.5000 ( 21412 PWs)   bands (ev):

    -1.8162  -1.8162  -1.8162  -1.8162  -1.2587  -1.2587  -1.2587  -1.2587
     2.0385   2.0385   2.0385   2.0385   2.5769   2.5769   2.5769   2.5769
     2.5769   2.5769   2.5769   2.5769   3.1167   3.1167   3.1167   3.1168
     3.1168   3.1168   3.1168   3.1168   3.6452   3.6453   3.6453   3.6453
     6.3335   6.3335   6.3335   6.3335   6.3335   6.3335   6.3335   6.3335
     6.8530   6.8530   6.8530   6.8530   7.3846   7.3846   7.3846   7.3846
     7.8938   7.8938   7.8938   7.8938   7.8939   7.8939   7.8939   7.8939
    10.2272  10.2272

          k =-0.5000-0.5000-0.5000 ( 21368 PWs)   bands (ev):

    -1.5721  -1.5721  -1.5721  -1.5721  -1.5720  -1.5720  -1.5720  -1.5720
     2.8134   2.8134   2.8134   2.8134   2.8134   2.8134   2.8135   2.8135
     2.8135   2.8135   2.8135   2.8135   2.8135   2.8135   2.8135   2.8135
     2.8135   2.8135   2.8135   2.8135   2.8135   2.8135   2.8135   2.8135
     7.0862   7.0862   7.0862   7.0862   7.0862   7.0862   7.0862   7.0862
     7.0862   7.0862   7.0862   7.0862   7.0862   7.0862   7.0862   7.0862
     7.0862   7.0862   7.0862   7.0862   7.0862   7.0862   7.0862   7.0862
    11.4765  11.4785

     the Fermi energy is     7.8479 ev

!    total energy              =    -161.24194574 Ry
     estimated scf accuracy    <          5.1E-09 Ry
     smearing contrib. (-TS)   =      -0.00000729 Ry
     internal energy E=F+TS    =    -161.24193846 Ry

     The total energy is F=E-TS. E is the sum of the following terms:
     one-electron contribution =      93.88567446 Ry
     hartree contribution      =       0.19615217 Ry
     xc contribution           =     -82.79366555 Ry
     ewald contribution        =    -172.53009954 Ry

     convergence has been achieved in   8 iterations

     Forces acting on atoms (cartesian axes, Ry/au):

     atom    1 type  1   force =     0.00000000    0.00000000    0.00000000
     atom    2 type  1   force =    -0.00000000   -0.00000111   -0.00000111
     atom    3 type  1   force =    -0.00000111    0.00000000   -0.00000111
     atom    4 type  1   force =    -0.00000111   -0.00000111    0.00000000
     atom    5 type  1   force =     0.00000000    0.00000000    0.00000000
     atom    6 type  1   force =     0.00000000   -0.00000111    0.00000111
     atom    7 type  1   force =    -0.00000111    0.00000000    0.00000111
     atom    8 type  1   force =    -0.00000159   -0.00000159    0.00000000
     atom    9 type  1   force =     0.00000000    0.00000000    0.00000000
     atom   10 type  1   force =     0.00000000    0.00000111   -0.00000111
     atom   11 type  1   force =    -0.00000159   -0.00000000   -0.00000159
     atom   12 type  1   force =    -0.00000111    0.00000111    0.00000000
     atom   13 type  1   force =     0.00000000    0.00000000    0.00000000
     atom   14 type  1   force =     0.00000000    0.00000111    0.00000111
     atom   15 type  1   force =    -0.00000159    0.00000000    0.00000159
     atom   16 type  1   force =    -0.00000159    0.00000159   -0.00000000
     atom   17 type  1   force =     0.00000000    0.00000000    0.00000000
     atom   18 type  1   force =     0.00000000   -0.00000159   -0.00000159
     atom   19 type  1   force =     0.00000111   -0.00000000   -0.00000111
     atom   20 type  1   force =     0.00000111   -0.00000111    0.00000000
     atom   21 type  1   force =     0.00000000    0.00000000    0.00000000
     atom   22 type  1   force =     0.00000000   -0.00000159    0.00000159
     atom   23 type  1   force =     0.00000111    0.00000000    0.00000111
     atom   24 type  1   force =     0.00000159   -0.00000159    0.00000000
     atom   25 type  1   force =     0.00000000    0.00000000    0.00000000
     atom   26 type  1   force =    -0.00000000    0.00000159   -0.00000159
     atom   27 type  1   force =     0.00000159    0.00000000   -0.00000159
     atom   28 type  1   force =     0.00000111    0.00000111   -0.00000000
     atom   29 type  1   force =     0.00000000    0.00000000    0.00000000
     atom   30 type  1   force =     0.00000000    0.00000159    0.00000159
     atom   31 type  1   force =     0.00000159    0.00000000    0.00000159
     atom   32 type  1   force =     0.00000159    0.00000159   -0.00000000

     Total force =     0.000010     Total SCF correction =     0.000103
     SCF correction compared to forces is large: reduce conv_thr to get better values


     Computing stress (Cartesian axis) and pressure

          total   stress  (Ry/bohr**3)                   (kbar)     P=       -6.70
  -0.00004557   0.00000000   0.00000000           -6.70        0.00        0.00
   0.00000000  -0.00004557   0.00000000            0.00       -6.70        0.00
   0.00000000   0.00000000  -0.00004557            0.00        0.00       -6.70


     BFGS Geometry Optimization
     Energy error            =      0.0E+00
     Gradient error          =      1.6E-06

     bfgs converged in   1 scf cycles and   0 bfgs steps
     (criteria: energy <  1.0E-04 Ry, force <  1.0E-03 Ry/Bohr)

     End of BFGS Geometry Optimization

     Final energy   =    -161.2419457443 Ry
Begin final coordinates

ATOMIC_POSITIONS (angstrom)
Al            0.0000000000        0.0000000000        0.0000000000
Al            0.0000000000        2.0250000000        2.0250000000
Al            2.0250000000        0.0000000000        2.0250000000
Al            2.0250000000        2.0250000000        0.0000000000
Al            0.0000000000        0.0000000000        4.0500000000
Al            0.0000000000        2.0250000000        6.0750000000
Al            2.0250000000        0.0000000000        6.0750000000
Al            2.0250000000        2.0250000000        4.0500000000
Al            0.0000000000        4.0500000000        0.0000000000
Al            0.0000000000        6.0750000000        2.0250000000
Al            2.0250000000        4.0500000000        2.0250000000
Al            2.0250000000        6.0750000000        0.0000000000
Al            0.0000000000        4.0500000000        4.0500000000
Al            0.0000000000        6.0750000000        6.0750000000
Al            2.0250000000        4.0500000000        6.0750000000
Al            2.0250000000        6.0750000000        4.0500000000
Al            4.0500000000        0.0000000000        0.0000000000
Al            4.0500000000        2.0250000000        2.0250000000
Al            6.0750000000        0.0000000000        2.0250000000
Al            6.0750000000        2.0250000000        0.0000000000
Al            4.0500000000        0.0000000000        4.0500000000
Al            4.0500000000        2.0250000000        6.0750000000
Al            6.0750000000        0.0000000000        6.0750000000
Al            6.0750000000        2.0250000000        4.0500000000
Al            4.0500000000        4.0500000000        0.0000000000
Al            4.0500000000        6.0750000000        2.0250000000
Al            6.0750000000        4.0500000000        2.0250000000
Al            6.0750000000        6.0750000000        0.0000000000
Al            4.0500000000        4.0500000000        4.0500000000
Al            4.0500000000        6.0750000000        6.0750000000
Al            6.0750000000        4.0500000000        6.0750000000
Al            6.0750000000        6.0750000000        4.0500000000
End final coordinates



     Writing output data file qe_tmp/Al32.save/

     init_run     :    368.40s CPU    371.47s WALL (       1 calls)
     electrons    :   5991.96s CPU   6017.09s WALL (       1 calls)
     forces       :    121.11s CPU    122.49s WALL (       1 calls)
     stress       :    172.69s CPU    174.71s WALL (       1 calls)

     Called by init_run:
     wfcinit      :    364.33s CPU    366.65s WALL (       1 calls)
     potinit      :      0.87s CPU      0.97s WALL (       1 calls)
     hinit0       :      0.54s CPU      0.54s WALL (       1 calls)

     Called by electrons:
     c_bands      :   5509.74s CPU   5526.68s WALL (       9 calls)
     sum_band     :    458.77s CPU    464.50s WALL (       9 calls)
     v_of_rho     :      6.72s CPU      7.10s WALL (       9 calls)
     newd         :     17.86s CPU     20.38s WALL (       9 calls)
     mix_rho      :      0.83s CPU      0.84s WALL (       9 calls)

     Called by c_bands:
     init_us_2    :     24.09s CPU     24.15s WALL (     735 calls)
     cegterg      :   5409.99s CPU   5425.41s WALL (     315 calls)

     Called by *egterg:
     cdiaghg      :     17.94s CPU     17.95s WALL (    1929 calls)
     h_psi        :   3053.40s CPU   3060.91s WALL (    1999 calls)
     s_psi        :    953.78s CPU    954.00s WALL (    1999 calls)
     g_psi        :     27.63s CPU     27.65s WALL (    1649 calls)

     Called by h_psi:
     h_psi:calbec :    886.51s CPU    887.28s WALL (    1999 calls)
     vloc_psi     :   1209.69s CPU   1213.35s WALL (    1999 calls)
     add_vuspsi   :    952.06s CPU    952.25s WALL (    1999 calls)

     General routines
     calbec       :   1266.93s CPU   1267.78s WALL (    2489 calls)
     fft          :      3.47s CPU      3.47s WALL (     141 calls)
     ffts         :      0.16s CPU      0.16s WALL (      18 calls)
     fftw         :   1227.88s CPU   1231.64s WALL (  147102 calls)
     interpolate  :      0.34s CPU      0.34s WALL (       9 calls)

     Parallel routines

     PWSCF        :      1h50m CPU      1h51m WALL


   This run was terminated on:  12:36:58  14Jul2026            

=------------------------------------------------------------------------------=
   JOB DONE.
=------------------------------------------------------------------------------=
