
     Program PWSCF v.6.7MaX starts on 15Jul2026 at  2:26:33 

     This program is part of the open-source Quantum ESPRESSO suite
     for quantum simulation of materials; please cite
         "P. Giannozzi et al., J. Phys.:Condens. Matter 21 395502 (2009);
         "P. Giannozzi et al., J. Phys.:Condens. Matter 29 465901 (2017);
          URL http://www.quantum-espresso.org", 
     in publications or presentations arising from this work. More details at
     http://www.quantum-espresso.org/quote

     Parallel version (MPI), running on     1 processors

     MPI processes distributed on     1 nodes
     Waiting for input...
     Reading input from standard input
Warning: card &CELL ignored
Warning: card    PRESS_CONV_THR   = 0.5 ignored
Warning: card / ignored
Warning: card &FCP ignored
Warning: card / ignored
Warning: card &RISM ignored
Warning: card / ignored

     Current dimensions of program PWSCF are:
     Max number of different atomic species (ntypx) = 10
     Max number of k-points (npk) =  40000
     Max angular momentum in pseudopotentials (lmaxx) =  3

     IMPORTANT: XC functional enforced from input :
     Exchange-correlation= PBE
                           (   1   4   3   4   0   0   0)
     Any further DFT definition will be discarded
     Please, verify this is what you really want


     Subspace diagonalization in iterative solution of the eigenvalue problem:
     a serial algorithm will be used

     Message from routine setup:
     using ibrav=0 with symmetry is DISCOURAGED, use correct ibrav instead

     G-vector sticks info
     --------------------
     sticks:   dense  smooth     PW     G-vecs:    dense   smooth      PW
     Sum        7441    3729   1033               484425   171189   24837



     bravais-lattice index     =            0
     lattice parameter (alat)  =      15.3068  a.u.
     unit-cell volume          =    3586.3416 (a.u.)^3
     number of atoms/cell      =           32
     number of atomic types    =            2
     number of electrons       =        97.00
     number of Kohn-Sham states=           59
     kinetic-energy cutoff     =      50.0000  Ry
     charge density cutoff     =     400.0000  Ry
     scf convergence threshold =      1.0E-08
     mixing beta               =       0.7000
     number of iterations used =            8  plain     mixing
     energy convergence thresh.=      1.0E-04
     force convergence thresh. =      1.0E-03
     Exchange-correlation= PBE
                           (   1   4   3   4   0   0   0)
     nstep                     =           50


     celldm(1)=  15.306782  celldm(2)=   0.000000  celldm(3)=   0.000000
     celldm(4)=   0.000000  celldm(5)=   0.000000  celldm(6)=   0.000000

     crystal axes: (cart. coord. in units of alat)
               a(1) = (   1.000000   0.000000   0.000000 )  
               a(2) = (   0.000000   1.000000   0.000000 )  
               a(3) = (   0.000000   0.000000   1.000000 )  

     reciprocal axes: (cart. coord. in units 2 pi/alat)
               b(1) = (  1.000000  0.000000  0.000000 )  
               b(2) = (  0.000000  1.000000  0.000000 )  
               b(3) = (  0.000000  0.000000  1.000000 )  


     PseudoPot. # 1 for Al read from file:
     ../../../pseudos/Al.us.pbe.z_3.ld1.psl.v1.0.0-low.upf
     MD5 check sum: ce85e4ab7f99e505e5d81ad4c7630c6b
     Pseudo is Ultrasoft + core correction, Zval =  3.0
     Generated using &quot;atomic&quot; code by A. Dal Corso  v.6.3MaX
     Using radial grid of 1135 points,  4 beta functions with: 
                l(1) =   0
                l(2) =   0
                l(3) =   1
                l(4) =   1
     Q(r) pseudized with 0 coefficients 


     PseudoPot. # 2 for Si read from file:
     ../../../pseudos/Si.us.pbe.z_4.ld1.psl.v1.0.0-high.upf
     MD5 check sum: 8e298c2a3df40404922b81d9358831a3
     Pseudo is Ultrasoft + core correction, Zval =  4.0
     Generated using &quot;atomic&quot; code by A. Dal Corso  v.6.3MaX
     Using radial grid of 1141 points,  6 beta functions with: 
                l(1) =   0
                l(2) =   0
                l(3) =   1
                l(4) =   1
                l(5) =   2
                l(6) =   2
     Q(r) pseudized with 0 coefficients 


     atomic species   valence    mass     pseudopotential
        Al             3.00    26.98154     Al( 1.00)
        Si             4.00    28.08500     Si( 1.00)

     48 Sym. Ops., with inversion, found (44 have fractional translation)



   Cartesian axes

     site n.     atom                  positions (alat units)
         1           Al  tau(   1) = (   0.0000000   0.0000000   0.0000000  )
         2           Si  tau(   2) = (   0.0000000   0.2500000   0.2500000  )
         3           Al  tau(   3) = (   0.2500000   0.0000000   0.2500000  )
         4           Al  tau(   4) = (   0.2500000   0.2500000   0.0000000  )
         5           Al  tau(   5) = (   0.0000000   0.0000000   0.5000000  )
         6           Al  tau(   6) = (   0.0000000   0.2500000   0.7500000  )
         7           Al  tau(   7) = (   0.2500000   0.0000000   0.7500000  )
         8           Al  tau(   8) = (   0.2500000   0.2500000   0.5000000  )
         9           Al  tau(   9) = (   0.0000000   0.5000000   0.0000000  )
        10           Al  tau(  10) = (   0.0000000   0.7500000   0.2500000  )
        11           Al  tau(  11) = (   0.2500000   0.5000000   0.2500000  )
        12           Al  tau(  12) = (   0.2500000   0.7500000   0.0000000  )
        13           Al  tau(  13) = (   0.0000000   0.5000000   0.5000000  )
        14           Al  tau(  14) = (   0.0000000   0.7500000   0.7500000  )
        15           Al  tau(  15) = (   0.2500000   0.5000000   0.7500000  )
        16           Al  tau(  16) = (   0.2500000   0.7500000   0.5000000  )
        17           Al  tau(  17) = (   0.5000000   0.0000000   0.0000000  )
        18           Al  tau(  18) = (   0.5000000   0.2500000   0.2500000  )
        19           Al  tau(  19) = (   0.7500000   0.0000000   0.2500000  )
        20           Al  tau(  20) = (   0.7500000   0.2500000   0.0000000  )
        21           Al  tau(  21) = (   0.5000000   0.0000000   0.5000000  )
        22           Al  tau(  22) = (   0.5000000   0.2500000   0.7500000  )
        23           Al  tau(  23) = (   0.7500000   0.0000000   0.7500000  )
        24           Al  tau(  24) = (   0.7500000   0.2500000   0.5000000  )
        25           Al  tau(  25) = (   0.5000000   0.5000000   0.0000000  )
        26           Al  tau(  26) = (   0.5000000   0.7500000   0.2500000  )
        27           Al  tau(  27) = (   0.7500000   0.5000000   0.2500000  )
        28           Al  tau(  28) = (   0.7500000   0.7500000   0.0000000  )
        29           Al  tau(  29) = (   0.5000000   0.5000000   0.5000000  )
        30           Al  tau(  30) = (   0.5000000   0.7500000   0.7500000  )
        31           Al  tau(  31) = (   0.7500000   0.5000000   0.7500000  )
        32           Al  tau(  32) = (   0.7500000   0.7500000   0.5000000  )

     number of k points=    35  Marzari-Vanderbilt smearing, width (Ry)=  0.0200
                       cart. coord. in units 2pi/alat
        k(    1) = (   0.0000000   0.0000000   0.0000000), wk =   0.0039062
        k(    2) = (   0.0000000   0.0000000   0.1250000), wk =   0.0234375
        k(    3) = (   0.0000000   0.0000000   0.2500000), wk =   0.0234375
        k(    4) = (   0.0000000   0.0000000   0.3750000), wk =   0.0234375
        k(    5) = (   0.0000000   0.0000000  -0.5000000), wk =   0.0117188
        k(    6) = (   0.0000000   0.1250000   0.1250000), wk =   0.0468750
        k(    7) = (   0.0000000   0.1250000   0.2500000), wk =   0.0937500
        k(    8) = (   0.0000000   0.1250000   0.3750000), wk =   0.0937500
        k(    9) = (   0.0000000   0.1250000  -0.5000000), wk =   0.0468750
        k(   10) = (   0.0000000   0.2500000   0.2500000), wk =   0.0468750
        k(   11) = (   0.0000000   0.2500000   0.3750000), wk =   0.0937500
        k(   12) = (   0.0000000   0.2500000  -0.5000000), wk =   0.0468750
        k(   13) = (   0.0000000   0.3750000   0.3750000), wk =   0.0468750
        k(   14) = (   0.0000000   0.3750000  -0.5000000), wk =   0.0468750
        k(   15) = (   0.0000000  -0.5000000  -0.5000000), wk =   0.0117188
        k(   16) = (   0.1250000   0.1250000   0.1250000), wk =   0.0312500
        k(   17) = (   0.1250000   0.1250000   0.2500000), wk =   0.0937500
        k(   18) = (   0.1250000   0.1250000   0.3750000), wk =   0.0937500
        k(   19) = (   0.1250000   0.1250000  -0.5000000), wk =   0.0468750
        k(   20) = (   0.1250000   0.2500000   0.2500000), wk =   0.0937500
        k(   21) = (   0.1250000   0.2500000   0.3750000), wk =   0.1875000
        k(   22) = (   0.1250000   0.2500000  -0.5000000), wk =   0.0937500
        k(   23) = (   0.1250000   0.3750000   0.3750000), wk =   0.0937500
        k(   24) = (   0.1250000   0.3750000  -0.5000000), wk =   0.0937500
        k(   25) = (   0.1250000  -0.5000000  -0.5000000), wk =   0.0234375
        k(   26) = (   0.2500000   0.2500000   0.2500000), wk =   0.0312500
        k(   27) = (   0.2500000   0.2500000   0.3750000), wk =   0.0937500
        k(   28) = (   0.2500000   0.2500000  -0.5000000), wk =   0.0468750
        k(   29) = (   0.2500000   0.3750000   0.3750000), wk =   0.0937500
        k(   30) = (   0.2500000   0.3750000  -0.5000000), wk =   0.0937500
        k(   31) = (   0.2500000  -0.5000000  -0.5000000), wk =   0.0234375
        k(   32) = (   0.3750000   0.3750000   0.3750000), wk =   0.0312500
        k(   33) = (   0.3750000   0.3750000  -0.5000000), wk =   0.0468750
        k(   34) = (   0.3750000  -0.5000000  -0.5000000), wk =   0.0234375
        k(   35) = (  -0.5000000  -0.5000000  -0.5000000), wk =   0.0039062

     Dense  grid:   484425 G-vectors     FFT dimensions: ( 100, 100, 100)

     Smooth grid:   171189 G-vectors     FFT dimensions: (  72,  72,  72)

     Estimated max dynamical RAM per process >       3.04 GB

     Initial potential from superposition of free atoms

     starting charge   96.92844, renormalised to   97.00000
     Starting wfcs are  128 randomized atomic wfcs

     total cpu time spent up to now is      378.5 secs

     Self-consistent Calculation

     iteration #  1     ecut=    50.00 Ry     beta= 0.70
     Davidson diagonalization with overlap
     ethr =  1.00E-02,  avg # of iterations =  3.5

     Threshold (ethr) on eigenvalues was too large:
     Diagonalizing with lowered threshold

     Davidson diagonalization with overlap
     ethr =  1.83E-04,  avg # of iterations =  6.5

     total cpu time spent up to now is     1742.7 secs

     total energy              =    -167.58112584 Ry
     estimated scf accuracy    <       0.18585968 Ry

     iteration #  2     ecut=    50.00 Ry     beta= 0.70
     Davidson diagonalization with overlap
     ethr =  1.92E-04,  avg # of iterations =  2.2

     total cpu time spent up to now is     2236.9 secs

     total energy              =    -167.54996495 Ry
     estimated scf accuracy    <       0.08544931 Ry

     iteration #  3     ecut=    50.00 Ry     beta= 0.70
     Davidson diagonalization with overlap
     ethr =  8.81E-05,  avg # of iterations =  6.6

     total cpu time spent up to now is     2957.3 secs

     total energy              =    -167.53696672 Ry
     estimated scf accuracy    <       0.42766098 Ry

     iteration #  4     ecut=    50.00 Ry     beta= 0.70
     Davidson diagonalization with overlap
     ethr =  8.81E-05,  avg # of iterations =  4.7

     total cpu time spent up to now is     3570.6 secs

     total energy              =    -167.58779438 Ry
     estimated scf accuracy    <       0.00240620 Ry

     iteration #  5     ecut=    50.00 Ry     beta= 0.70
     Davidson diagonalization with overlap
     c_bands:  1 eigenvalues not converged
     c_bands:  1 eigenvalues not converged
     c_bands:  2 eigenvalues not converged
     c_bands:  2 eigenvalues not converged
     c_bands:  1 eigenvalues not converged
     c_bands:  1 eigenvalues not converged
     c_bands:  2 eigenvalues not converged
     c_bands:  1 eigenvalues not converged
     c_bands:  1 eigenvalues not converged
     c_bands:  1 eigenvalues not converged
     ethr =  2.48E-06,  avg # of iterations = 13.0

     total cpu time spent up to now is     4607.0 secs

     total energy              =    -167.59027785 Ry
     estimated scf accuracy    <       0.00344914 Ry

     iteration #  6     ecut=    50.00 Ry     beta= 0.70
     Davidson diagonalization with overlap
     c_bands:  1 eigenvalues not converged
     ethr =  2.48E-06,  avg # of iterations =  3.2

     total cpu time spent up to now is     5078.2 secs

     total energy              =    -167.59038752 Ry
     estimated scf accuracy    <       0.00041892 Ry

     iteration #  7     ecut=    50.00 Ry     beta= 0.70
     Davidson diagonalization with overlap
     ethr =  4.32E-07,  avg # of iterations =  4.7

     total cpu time spent up to now is     5634.1 secs

     total energy              =    -167.59047368 Ry
     estimated scf accuracy    <       0.00000313 Ry

     iteration #  8     ecut=    50.00 Ry     beta= 0.70
     Davidson diagonalization with overlap
     ethr =  3.22E-09,  avg # of iterations =  9.6

     total cpu time spent up to now is     6879.3 secs

     total energy              =    -167.59047974 Ry
     estimated scf accuracy    <       0.00007343 Ry

     iteration #  9     ecut=    50.00 Ry     beta= 0.70
     Davidson diagonalization with overlap
     ethr =  3.22E-09,  avg # of iterations =  5.0

     total cpu time spent up to now is     7531.3 secs

     total energy              =    -167.59048202 Ry
     estimated scf accuracy    <       0.00000740 Ry

     iteration # 10     ecut=    50.00 Ry     beta= 0.70
     Davidson diagonalization with overlap
     ethr =  3.22E-09,  avg # of iterations =  3.7

     total cpu time spent up to now is     8094.3 secs

     End of self-consistent calculation

          k = 0.0000 0.0000 0.0000 ( 21367 PWs)   bands (ev):

    -3.3483  -1.5819  -1.0037  -1.0037  -1.0037  -0.9811  -0.9811   0.5604
     1.1329   1.1329   1.1329   1.2239   1.2239   1.2239   1.2239   1.2239
     1.2244   1.2244   1.2244   3.1720   3.2181   3.2181   3.2181   3.3035
     3.5022   3.5022   3.5022   4.8834   4.8834   4.8834   5.9937   6.2721
     6.2721   6.7411   6.7411   6.7411   7.0265   7.0265   7.0265   7.0343
     7.0343   7.0343   7.0347   7.0347   7.0347   7.9802   7.9802   7.9802
     8.0442   8.0442   8.0553   8.0644   8.8980   8.8980   8.9416   8.9416
     8.9451   8.9451   8.9451

          k = 0.0000 0.0000 0.1250 ( 21419 PWs)   bands (ev):

    -3.3145  -1.7372  -1.2739  -0.9690  -0.9690  -0.9464  -0.4665   0.3487
     0.6857   0.6857   0.7102   1.0578   1.2127   1.2127   1.2586   1.6169
     1.7826   1.7826   1.8036   2.7012   2.8358   2.8358   2.8863   3.7574
     3.9495   3.9495   3.9848   4.3105   4.9156   4.9156   6.0527   6.2634
     6.3062   6.4119   6.4119   6.4843   6.5020   6.5020   6.8290   6.9330
     6.9330   7.0589   7.0671   7.5261   7.5261   7.6669   7.8276   8.1665
     8.2616   8.2616   8.3389   8.4432   8.5131   8.5136   8.6004   8.6013
     8.6013   8.6174   8.6254

          k = 0.0000 0.0000 0.2500 ( 21418 PWs)   bands (ev):

    -3.2141  -2.1034  -1.2584  -0.8651  -0.8651  -0.8423  -0.0696   0.2254
     0.2406   0.2406   0.2634   1.1316   1.3143   1.3143   1.3612   2.1331
     2.3537   2.3825   2.3825   2.4478   2.4478   2.4482   2.4496   3.4190
     4.3827   4.5717   4.5717   4.6175   5.0129   5.0129   5.3344   5.5939
     5.5939   5.6161   6.0513   6.0513   6.2377   6.4083   7.0145   7.0145
     7.1562   7.1645   7.2299   7.4576   7.6104   7.7127   7.7127   7.7488
     7.8786   8.0335   8.0335   8.1951   8.1971   8.1971   8.2032   8.3596
     8.5376   8.5376   8.5617

          k = 0.0000 0.0000 0.3750 ( 21446 PWs)   bands (ev):

    -3.0535  -2.4526  -1.1619  -0.6924  -0.6924  -0.6690  -0.3253  -0.1375
    -0.1375  -0.1157   0.8666   1.2922   1.4828   1.4828   1.5319   1.9041
     2.0337   2.0337   2.0768   2.5434   2.9207   3.1339   3.1339   3.1560
     4.4744   4.7188   4.7188   4.7483   5.0747   5.1434   5.1434   5.2993
     5.2993   5.3160   5.7064   5.7064   6.3488   6.5774   6.6678   6.8429
     6.8429   6.8907   7.0468   7.1084   7.1819   7.1819   7.3184   7.3267
     7.7421   7.7421   7.8380   7.8461   8.4464   8.7084   8.7084   8.7615
     8.8460   8.8460   9.0952

          k = 0.0000 0.0000-0.5000 ( 21426 PWs)   bands (ev):

    -2.9099  -2.6610  -1.1005  -0.4737  -0.4737  -0.4495  -0.4289  -0.4247
    -0.4247  -0.4244   1.2624   1.6786   1.6786   1.6858   1.7638   1.7675
     1.7683   1.7712   1.7712   1.7730   3.6227   3.7134   3.8789   3.8789
     3.9221   3.9221   3.9238   3.9249   5.3123   5.3123   5.4791   5.4791
     5.7156   5.8972   6.0171   6.0171   6.0695   6.0695   6.0748   6.0764
     6.6114   6.7946   6.8060   6.8181   7.3001   7.3001   7.5364   7.5517
     7.5521   7.5521   7.5550   7.5560   8.5515   8.9287   8.9287   8.9959
     9.0135   9.0143   9.0155

          k = 0.0000 0.1250 0.1250 ( 21407 PWs)   bands (ev):

    -3.2807  -1.7811  -1.4789  -1.0934  -0.9344  -0.5165  -0.3695   0.0763
     0.4935   0.6981   0.7200   0.7448   1.1794   1.2465   1.6348   1.7921
     1.8162   1.8379   2.2655   2.3305   2.3596   3.2820   3.3264   3.3995
     3.5711   4.3237   4.3641   4.4275   4.5290   4.9488   5.8235   5.9627
     6.2227   6.3201   6.3512   6.4738   6.4830   6.5782   6.6092   6.7949
     6.8911   6.9616   6.9988   7.4774   7.6166   7.7189   7.9632   8.0155
     8.0432   8.0530   8.1084   8.1176   8.3012   8.3593   8.7210   8.7295
     8.7413   9.0298   9.0709

          k = 0.0000 0.1250 0.2500 ( 21406 PWs)   bands (ev):

    -3.1805  -2.0775  -1.5062  -1.0171  -0.8305  -0.4215  -0.2831   0.1086
     0.2655   0.2747   0.7021   0.8094   0.8253   1.6814   1.8806   1.8943
     1.9080   1.9398   2.3758   2.4605   2.8793   2.9893   2.9962   3.4548
     3.9681   4.1005   4.4465   5.0171   5.0263   5.0512   5.1758   5.4747
     5.5398   5.6209   6.0801   6.0997   6.3326   6.5019   6.5918   6.6455
     6.9451   7.1099   7.2365   7.3496   7.5329   7.5719   7.6832   7.7110
     7.7451   7.9222   7.9772   8.0673   8.1741   8.2153   8.2972   8.6974
     8.8922   9.0479   9.0980

          k = 0.0000 0.1250 0.3750 ( 21434 PWs)   bands (ev):

    -3.0205  -2.4198  -1.3808  -0.9149  -0.6579  -0.6504  -0.2668  -0.1031
    -0.0972   0.3964   0.8094   0.9955   0.9994   1.4482   1.5434   1.9603
     2.0872   2.4808   2.5740   2.6270   2.6289   3.0768   3.1678   3.6665
     4.1395   4.5453   4.6586   4.7261   4.7410   4.8035   5.1483   5.2010
     5.2432   5.7259   5.7388   5.8716   6.2204   6.3755   6.5304   6.6661
     6.7454   6.8068   7.0118   7.1543   7.2259   7.2726   7.3292   7.3464
     7.4412   7.6803   7.8152   8.1666   8.3378   8.3546   8.7469   8.8577
     9.0296   9.1937   9.3177

          k = 0.0000 0.1250-0.5000 ( 21398 PWs)   bands (ev):

    -2.8784  -2.6259  -1.2778  -0.9505  -0.6670  -0.4393  -0.4023  -0.3901
     0.0333   0.1556   0.9758   1.2111   1.2467   1.2604   1.6945   1.7399
     2.1402   2.3007   2.3366   2.3493   3.3002   3.3546   3.8123   3.8540
     3.9117   3.9553   4.4105   4.4458   4.7443   4.9136   5.3279   5.4049
     5.4846   5.5114   5.5673   5.5746   6.3807   6.5477   6.5959   6.6363
     6.7110   6.8348   6.8383   6.9147   7.0262   7.0302   7.0310   7.0670
     7.3268   7.4291   7.9824   8.1059   8.3506   8.5181   9.0329   9.1028
     9.1972   9.4571   9.5576

          k = 0.0000 0.2500 0.2500 ( 21408 PWs)   bands (ev):

    -3.0811  -2.0647  -1.8275  -1.0018  -0.7267  -0.7195   0.0167   0.3561
     0.3657   0.3680   0.4000   0.4014   1.2965   1.4496   1.4726   1.4753
     2.3476   2.5375   2.5586   2.5839   3.4361   3.4494   3.5223   3.5786
     3.6064   3.7094   3.7772   4.5490   4.6760   5.1268   5.5415   5.5956
     5.6327   5.7161   5.7971   5.8803   6.1247   6.2542   6.4451   6.6284
     6.6353   6.7602   6.7981   6.8138   6.8260   7.2315   7.5327   7.7114
     7.9878   8.0906   8.1988   8.3312   8.6542   8.7118   8.8618   8.9046
     8.9217   9.0115   9.0366

          k = 0.0000 0.2500 0.3750 ( 21434 PWs)   bands (ev):

    -2.9233  -2.3253  -1.7637  -1.2065  -0.7316  -0.5543  -0.1423  -0.0002
     0.3790   0.5392   0.5510   0.9546   1.0805   1.0925   1.1006   2.1205
     2.5457   2.6973   2.7274   3.1350   3.2248   3.2416   3.2888   3.6548
     3.7746   4.1928   4.2697   4.3583   4.3670   4.7503   4.8434   5.2922
     5.6856   5.8085   5.8373   5.9345   5.9397   5.9570   6.3373   6.3430
     6.3713   6.4570   6.5017   6.6625   6.8826   7.0727   7.5372   7.7959
     7.9358   8.0566   8.2103   8.3311   8.4169   8.7169   8.9013   9.0100
     9.0243   9.2033   9.4859

          k = 0.0000 0.2500-0.5000 ( 21376 PWs)   bands (ev):

    -2.7866  -2.5206  -1.6293  -1.4022  -0.6374  -0.3362  -0.2987  -0.2864
     0.4816   0.7489   0.7681   0.7969   0.8131   0.8152   1.7944   1.8407
     2.6941   2.9136   2.9227   2.9373   2.9877   2.9902   3.8040   3.9419
     3.9812   4.0093   4.0290   4.0544   4.9283   5.0035   5.0751   5.0964
     5.1262   5.1427   5.4600   5.6085   5.9242   6.1348   6.1643   6.1689
     6.5245   6.6453   6.7415   6.9108   7.1350   7.1780   7.2395   7.2634
     7.8972   8.0886   8.2358   8.2750   8.3765   8.4933   8.5824   8.7233
     9.6408   9.7519   9.9037

          k = 0.0000 0.3750 0.3750 ( 21364 PWs)   bands (ev):

    -2.7716  -2.2324  -2.0370  -1.5571  -0.6199  -0.3821  -0.0523   0.1503
     0.1718   0.1949   0.6380   0.7246   1.1413   1.2757   1.7407   1.7870
     2.7465   2.8535   3.1964   3.3321   3.4031   3.4126   3.4503   3.4576
     3.8129   3.8500   3.9790   4.1183   4.8474   4.8812   4.9435   4.9958
     5.1842   5.4308   5.4492   5.5699   5.5840   5.5998   5.9429   6.0598
     6.4838   6.5287   6.5561   6.7499   7.0787   7.1884   7.3571   7.5280
     7.9498   8.2046   8.5827   8.6736   8.7211   8.7560   9.0309   9.1762
     9.3153   9.5965   9.6886

          k = 0.0000 0.3750-0.5000 ( 21380 PWs)   bands (ev):

    -2.6496  -2.3453  -1.9484  -1.7856  -0.5302  -0.1655  -0.1262  -0.1138
     0.2392   0.3929   0.4252   0.4375   1.3571   1.5233   1.9646   2.0075
     2.4937   2.5588   3.0012   3.1390   3.4304   3.6265   3.6690   3.6899
     4.0923   4.1035   4.1673   4.2161   4.5831   4.7055   4.7508   4.7813
     5.1038   5.2650   5.3054   5.3085   5.6181   5.7225   5.7566   5.7704
     6.1848   6.2888   6.8918   6.9605   7.2889   7.5419   7.6569   7.7293
     7.8210   7.8665   7.9236   7.9527   9.2197   9.3260   9.4060   9.4061
     9.4887   9.5054   9.5322

          k = 0.0000-0.5000-0.5000 ( 21392 PWs)   bands (ev):

    -2.5539  -2.1069  -2.1069  -2.0934  -0.4579   0.0332   0.1031   0.1031
     0.1260   0.1260   0.1276   0.1293   1.8996   2.1814   2.1814   2.3052
     2.3066   2.3079   2.3086   2.3086   4.0100   4.1632   4.1632   4.1725
     4.3426   4.3448   4.3448   4.3460   4.3469   4.5628   4.5628   4.5879
     4.5879   4.5895   4.5915   4.5935   5.7343   5.9950   5.9950   5.9993
     6.4215   6.4215   6.4790   6.5175   7.0946   7.4646   7.4646   7.4666
     8.5318   8.5318   8.5443   8.6397   8.6876   8.6982   8.6982   8.7050
     9.7172  10.1548  10.1556

          k = 0.1250 0.1250 0.1250 ( 21410 PWs)   bands (ev):

    -3.2470  -1.8053  -1.4441  -1.4441  -0.6284  -0.3351  -0.3351   0.0222
     0.2177   0.2177   0.9952   1.2574   1.2574   1.3263   1.3264   1.3264
     1.8093   2.2281   2.4029   2.4029   2.8481   2.9025   2.9025   3.8869
     4.0140   4.0140   4.3416   4.3990   4.3990   5.0451   5.7515   5.9207
     5.9207   6.0271   6.0271   6.0276   6.7079   6.8962   6.8962   6.9694
     6.9933   6.9933   7.0780   7.0780   7.0823   7.4857   7.5935   7.5935
     8.2668   8.3700   8.3700   8.5363   8.5363   8.5387   8.5973   8.6069
     8.6069   8.6581   8.6581

          k = 0.1250 0.1250 0.2500 ( 21399 PWs)   bands (ev):

    -3.1470  -2.0525  -1.5364  -1.3398  -0.5793  -0.2553  -0.2421  -0.2196
     0.2013   0.3147   0.7315   0.8689   1.2716   1.3822   1.4059   1.8431
     1.9620   2.3641   2.4708   2.4918   2.9381   3.0458   3.4204   3.4819
     3.6407   4.4232   4.4765   4.5956   4.6582   4.9944   5.1428   5.5127
     5.5443   5.6701   5.9436   6.0575   6.1393   6.2508   6.6856   6.9103
     7.0115   7.0526   7.1012   7.1804   7.1910   7.5556   7.6279   7.6943
     7.7831   7.9449   8.0953   8.1056   8.2085   8.2104   8.6065   8.6395
     8.7991   9.1420   9.2576

          k = 0.1250 0.1250 0.3750 ( 21424 PWs)   bands (ev):

    -2.9876  -2.3872  -1.4273  -1.1661  -0.7768  -0.6107  -0.2291  -0.0587
     0.3269   0.4625   0.4923   0.9373   1.0170   1.4914   1.5505   2.0317
     2.1009   2.5113   2.5977   2.6522   2.6730   3.1569   3.6332   3.7484
     4.0979   4.2458   4.2684   4.6269   4.6498   5.1343   5.1752   5.2142
     5.2804   5.3301   5.3599   5.8193   6.1930   6.2791   6.3577   6.7228
     6.7884   6.8311   6.9234   7.1025   7.2048   7.2827   7.3102   7.6155
     7.7217   7.8070   7.8310   7.9616   8.3414   8.3912   8.7633   8.8173
     9.1598   9.3163   9.3576

          k = 0.1250 0.1250-0.5000 ( 21386 PWs)   bands (ev):

    -2.8470  -2.5908  -1.3366  -0.9361  -0.9219  -0.9094  -0.1264   0.1690
     0.1835   0.1963   0.6019   0.7405   1.5360   1.7459   1.7636   1.8326
     1.8377   1.8390   2.7774   2.9150   3.2772   3.3420   3.4327   3.4533
     4.3521   4.4180   4.4963   4.5224   4.7058   4.8306   4.9421   4.9492
     5.0357   5.0377   5.9773   6.0543   6.0650   6.1354   6.3342   6.4833
     6.5364   6.5401   7.0020   7.1525   7.3184   7.3631   7.4465   7.4679
     7.4856   7.4981   7.5835   7.5837   8.8513   8.9334   9.0839   9.0906
     9.1315   9.1434   9.1603

          k = 0.1250 0.2500 0.2500 ( 21396 PWs)   bands (ev):

    -3.0479  -2.0410  -1.7926  -1.3301  -0.7946  -0.3550  -0.1516  -0.1270
     0.2834   0.4220   0.8026   0.9515   0.9723   1.4254   1.4836   1.9370
     2.0168   2.0637   2.9594   3.0866   3.0997   3.1563   3.5446   3.6107
     3.6343   4.1453   4.2210   4.5345   4.6054   4.7088   5.1474   5.1910
     5.2480   5.5819   5.6893   6.1014   6.2733   6.2773   6.3236   6.3307
     6.6974   6.7478   6.8013   7.0799   7.2802   7.3682   7.6583   7.7856
     7.9713   8.1184   8.1705   8.2771   8.3540   8.3869   8.7491   8.8362
     9.0961   9.1131   9.2614

          k = 0.1250 0.2500 0.3750 ( 21425 PWs)   bands (ev):

    -2.8908  -2.2932  -1.7361  -1.2376  -1.0677  -0.5929  -0.1253   0.0269
     0.4138   0.5724   0.5888   1.0019   1.1171   1.1356   1.6334   2.1073
     2.2071   2.6281   2.7202   2.7719   3.2432   3.6360   3.6984   3.7822
     3.8210   3.9307   4.2679   4.3236   4.3420   4.7303   4.8796   5.2258
     5.2617   5.3736   5.5157   5.7435   5.8979   5.9254   5.9983   6.3544
     6.3850   6.4880   6.9464   6.9846   7.2672   7.3841   7.5055   7.8872
     7.8904   8.2246   8.3530   8.3818   8.4479   8.5706   8.8328   8.9017
     9.0382   9.0828   9.2623

          k = 0.1250 0.2500-0.5000 ( 21404 PWs)   bands (ev):

    -2.7558  -2.4855  -1.6100  -1.3674  -0.9782  -0.8116  -0.0201   0.2394
     0.2881   0.2989   0.7065   0.8418   1.2495   1.3898   1.8290   1.8744
     2.3363   2.4772   2.8999   2.9571   3.3889   3.4900   3.4949   3.5567
     3.8983   4.0560   4.4830   4.5285   4.5692   4.6338   4.9062   5.0430
     5.0766   5.1040   5.4812   5.6574   5.6645   5.6802   5.9956   6.1179
     6.5881   6.6628   6.7163   6.7304   7.3722   7.5141   7.7430   7.7802
     8.0500   8.1925   8.2028   8.3297   8.4045   8.5036   8.5894   8.6833
     9.1468   9.2585   9.7524

          k = 0.1250 0.3750 0.3750 ( 21399 PWs)   bands (ev):

    -2.7401  -2.2014  -2.0021  -1.5272  -0.9941  -0.4998  -0.3339   0.0762
     0.1958   0.6189   0.7668   1.1522   1.2854   1.3099   1.7765   1.8208
     2.7168   2.8713   2.8767   2.9511   3.3263   3.4237   3.4314   3.4809
     3.8751   4.0121   4.3953   4.4720   4.5031   4.5729   4.8746   4.9900
     5.0331   5.0911   5.3937   5.4907   5.5173   5.6079   5.9955   6.0563
     6.1451   6.5758   6.5930   6.6579   7.3662   7.6878   7.9096   8.0917
     8.1793   8.1911   8.2645   8.5035   8.5722   8.6366   9.0775   9.1454
     9.2370   9.2442   9.3614

          k = 0.1250 0.3750-0.5000 ( 21438 PWs)   bands (ev):

    -2.6201  -2.3103  -1.9169  -1.7507  -0.8592  -0.6384  -0.2369  -0.0852
     0.2779   0.4651   0.8779   1.0140   1.4002   1.5574   1.9984   2.0410
     2.5234   2.5919   3.0067   3.0594   3.1704   3.1855   3.6319   3.6627
     4.0506   4.1088   4.2116   4.3779   4.5870   4.6323   4.7684   4.9096
     5.0641   5.2066   5.2595   5.2994   5.5946   5.6538   5.7460   5.8119
     5.8632   5.8961   7.2615   7.2693   7.3368   7.4242   7.6450   7.8802
     8.2048   8.3219   8.4332   8.4642   8.7064   8.8844   8.9120   8.9667
     9.2730   9.3138   9.6195

          k = 0.1250-0.5000-0.5000 ( 21408 PWs)   bands (ev):

    -2.5262  -2.0720  -2.0720  -2.0584  -0.7541  -0.4029  -0.4029  -0.3892
     0.3914   0.6985   0.6985   0.7126   1.9349   2.2145   2.2145   2.3391
     2.3405   2.3418   2.3425   2.3425   3.5975   3.8240   3.8240   3.9494
     3.9512   3.9522   3.9528   3.9528   4.6521   4.9578   4.9578   5.0497
     5.0501   5.0522   5.0527   5.0527   5.1944   5.4278   5.4278   5.4391
     6.5137   6.5137   6.5186   6.5971   7.6722   8.0294   8.0294   8.0409
     8.1127   8.1237   8.1237   8.2034   9.1450   9.1666   9.1666   9.2410
     9.2530   9.5632   9.6247

          k = 0.2500 0.2500 0.2500 ( 21428 PWs)   bands (ev):

    -2.9497  -2.0123  -1.6879  -1.6879  -0.8263  -0.5759  -0.5759   0.2351
     0.4971   0.5250   0.5250   1.3242   1.5615   1.5615   1.6326   1.6328
     1.6328   2.5837   2.6709   2.6709   3.5432   3.6595   3.6996   3.6996
     3.7899   3.7899   4.5135   4.7259   4.7259   4.7708   4.8229   4.8229
     4.8229   4.8683   4.8683   5.7420   5.8834   5.8834   6.7714   6.7992
     6.7992   6.9401   6.9450   6.9450   6.9491   7.8259   7.8777   7.8777
     8.0045   8.0045   8.0092   8.0691   8.2281   8.2281   9.0962   9.2021
     9.2030   9.3224   9.3234

          k = 0.2500 0.2500 0.3750 ( 21397 PWs)   bands (ev):

    -2.7953  -2.2015  -1.7101  -1.5138  -1.1011  -0.9569  -0.4751   0.0709
     0.4906   0.6963   1.0731   1.2179   1.2440   1.6928   1.7533   2.1754
     2.2902   2.2932   2.3446   2.7981   3.3278   3.7105   3.8609   3.8684
     3.8859   3.9444   4.3333   4.3705   4.4055   4.4844   4.4872   4.8473
     4.9693   4.9870   5.4270   5.5045   5.5066   5.5627   5.9637   6.0804
     6.9821   6.9974   7.0875   7.1409   7.4920   7.5426   7.6049   7.6190
     7.6259   8.2421   8.3676   8.5643   8.6736   8.8185   8.9387   9.1322
     9.1984   9.2148   9.3226

          k = 0.2500 0.2500-0.5000 ( 21422 PWs)   bands (ev):

    -2.6664  -2.3804  -1.6186  -1.2829  -1.2692  -1.2568  -0.3160  -0.1541
     0.6019   0.9218   0.9378   0.9511   1.7400   1.9472   1.9648   2.0362
     2.0410   2.0421   2.9290   3.0096   3.0968   3.1166   3.8772   4.0135
     4.0391   4.0556   4.1546   4.1605   4.2228   4.3119   4.9678   5.0442
     5.1173   5.1205   5.1596   5.3169   5.3469   5.3765   6.2143   6.2531
     6.2677   6.3329   7.1736   7.2325   7.3474   7.3489   8.1276   8.1879
     8.2700   8.2832   8.2881   8.4168   8.5763   8.6562   8.7659   8.7692
     9.2684   9.3567   9.3980

          k = 0.2500 0.3750 0.3750 ( 21425 PWs)   bands (ev):

    -2.6484  -2.1132  -1.8973  -1.4914  -1.3456  -0.9116  -0.7836  -0.2885
     0.7073   1.1432   1.3870   1.4003   1.4268   1.8358   1.9220   1.9467
     2.3722   2.5007   2.8615   2.9535   3.0137   3.0468   3.4447   3.5673
     3.9348   4.0656   4.0796   4.4010   4.5093   4.5391   4.6119   4.6546
     4.7660   5.0026   5.1231   5.1819   5.2565   6.1229   6.2031   6.2164
     6.6530   6.6760   6.7556   6.7870   7.6132   7.7324   7.8035   7.8080
     8.1536   8.2379   8.3023   8.3059   8.5898   9.0037   9.1325   9.1389
     9.2561   9.3452   9.5454

          k = 0.2500 0.3750-0.5000 ( 21448 PWs)   bands (ev):

    -2.5355  -2.2053  -1.8281  -1.6461  -1.2497  -1.0892  -0.6607  -0.5342
     0.8372   1.1154   1.4297   1.6013   1.6542   1.6668   2.0999   2.1415
     2.5540   2.6858   2.6860   2.7514   3.0995   3.2288   3.2354   3.2792
     3.7209   3.7689   4.1442   4.2754   4.3206   4.3379   4.7315   4.7618
     4.8443   4.9207   5.3392   5.3951   5.8448   5.8875   5.9152   5.9702
     6.3626   6.4897   6.9264   6.9814   7.4206   7.4667   7.8707   8.0335
     8.3981   8.4629   8.5072   8.5654   8.6261   8.8637   8.9900   9.0275
     9.0467   9.1041   9.2726

          k = 0.2500-0.5000-0.5000 ( 21452 PWs)   bands (ev):

    -2.4481  -1.9671  -1.9671  -1.9536  -1.1381  -0.8529  -0.8529  -0.8394
     0.9537   1.3472   1.3472   1.3623   2.0460   2.3128   2.3128   2.4407
     2.4421   2.4435   2.4442   2.4442   3.1889   3.4081   3.4081   3.5187
     3.5203   3.5215   3.5222   3.5222   4.3397   4.5466   4.5466   4.5598
     5.2648   5.5692   5.5692   5.6748   5.6754   5.6773   5.6780   5.6780
     6.6200   6.6296   6.6296   6.7105   7.6432   7.6959   7.6959   7.7750
     8.4175   8.6912   8.6912   8.7458   8.7768   8.7778   8.7794   8.7799
     8.7799   9.0792   9.0837

          k = 0.3750 0.3750 0.3750 ( 21434 PWs)   bands (ev):

    -2.5116  -2.0090  -1.7229  -1.7229  -1.3337  -1.1652  -1.1652  -0.6596
     1.1730   1.5814   1.5814   1.8704   2.0635   2.0635   2.1410   2.1412
     2.1412   2.5602   2.6371   2.6371   3.0433   3.1627   3.1627   3.4987
     3.6828   3.6828   3.7469   3.7470   3.7470   4.1592   4.2655   4.2655
     5.1358   5.3676   5.3676   5.7953   5.8706   5.8706   6.7506   6.7865
     6.7865   6.9434   6.9434   6.9474   7.3416   7.3724   7.3724   7.4744
     7.4744   7.4785   8.3101   8.4606   8.4606   8.8899   8.9704   9.0152
     9.0152   9.5653   9.7635

          k = 0.3750 0.3750-0.5000 ( 21392 PWs)   bands (ev):

    -2.4161  -2.0304  -1.7430  -1.4915  -1.4780  -1.4656  -1.0215  -0.9154
     1.3218   1.8022   1.8216   1.8371   2.1173   2.2803   2.2948   2.3749
     2.3786   2.3795   2.7363   2.8133   2.8949   2.9142   3.2013   3.3561
     3.4006   3.4463   3.4473   3.4498   3.8261   3.9573   3.9708   3.9820
     5.3995   5.6107   5.9736   6.0226   6.0983   6.1349   6.5508   6.5785
     6.5844   6.6603   7.0184   7.0556   7.1778   7.1796   7.5422   7.6027
     7.6479   7.6863   8.0784   8.1523   8.2037   8.2250   8.6301   8.7310
     9.5268   9.7645   9.8988

          k = 0.3750-0.5000-0.5000 ( 21412 PWs)   bands (ev):

    -2.3425  -1.7927  -1.7927  -1.7789  -1.4360  -1.2347  -1.2347  -1.2214
     1.4954   2.0575   2.0575   2.0758   2.2684   2.4720   2.4720   2.6100
     2.6114   2.6127   2.6134   2.6134   2.8791   3.0547   3.0547   3.1498
     3.1512   3.1526   3.1533   3.1533   3.5123   3.6714   3.6714   3.6826
     5.9271   6.2404   6.2404   6.3667   6.3675   6.3693   6.3700   6.3700
     6.7800   6.8003   6.8003   6.8797   7.2613   7.3395   7.3395   7.4115
     7.6350   7.8519   7.8519   7.9270   7.9280   7.9296   7.9303   7.9303
     9.8493  10.2459  10.2475

          k =-0.5000-0.5000-0.5000 ( 21368 PWs)   bands (ev):

    -2.2822  -1.5611  -1.5611  -1.5611  -1.5353  -1.5353  -1.5353  -1.5341
     1.7459   2.5912   2.5912   2.5912   2.8440   2.8440   2.8459   2.8459
     2.8459   2.8471   2.8471   2.8471   2.8483   2.8483   2.8483   2.8485
     2.8490   2.8490   2.8490   2.8514   2.8514   2.8515   2.8515   2.8515
     6.4762   6.7669   6.7669   6.7669   7.1020   7.1020   7.1020   7.1184
     7.1184   7.1204   7.1204   7.1204   7.1214   7.1214   7.1214   7.1214
     7.1214   7.1218   7.1226   7.1226   7.1226   7.1236   7.1236   7.1236
    10.7045  10.9250  10.9250

     the Fermi energy is     7.8862 ev

!    total energy              =    -167.59048302 Ry
     estimated scf accuracy    <          1.2E-09 Ry
     smearing contrib. (-TS)   =       0.00029655 Ry
     internal energy E=F+TS    =    -167.59077957 Ry

     The total energy is F=E-TS. E is the sum of the following terms:
     one-electron contribution =      94.43008586 Ry
     hartree contribution      =       0.59117252 Ry
     xc contribution           =     -86.30219922 Ry
     ewald contribution        =    -176.30983873 Ry

     convergence has been achieved in  10 iterations

     Forces acting on atoms (cartesian axes, Ry/au):

     atom    1 type  1   force =     0.00000000    0.00215259    0.00215259
     atom    2 type  2   force =     0.00000000    0.00000000    0.00000000
     atom    3 type  1   force =    -0.00215259    0.00215259   -0.00000000
     atom    4 type  1   force =    -0.00215259    0.00000000    0.00215259
     atom    5 type  1   force =    -0.00000000    0.00215259   -0.00215259
     atom    6 type  1   force =     0.00000000    0.00000000    0.00000000
     atom    7 type  1   force =     0.00016600   -0.00016600    0.00000000
     atom    8 type  1   force =    -0.00215259   -0.00000000   -0.00215259
     atom    9 type  1   force =     0.00000000   -0.00215259    0.00215259
     atom   10 type  1   force =     0.00000000    0.00000000    0.00000000
     atom   11 type  1   force =    -0.00215259   -0.00215259   -0.00000000
     atom   12 type  1   force =     0.00016600    0.00000000   -0.00016600
     atom   13 type  1   force =    -0.00000000   -0.00215259   -0.00215259
     atom   14 type  1   force =     0.00000000    0.00000000    0.00000000
     atom   15 type  1   force =     0.00016600    0.00016600   -0.00000000
     atom   16 type  1   force =     0.00016600   -0.00000000    0.00016600
     atom   17 type  1   force =     0.00000000   -0.00016600   -0.00016600
     atom   18 type  1   force =     0.00000000    0.00000000    0.00000000
     atom   19 type  1   force =     0.00215259    0.00215259    0.00000000
     atom   20 type  1   force =     0.00215259   -0.00000000    0.00215259
     atom   21 type  1   force =     0.00000000   -0.00016600    0.00016600
     atom   22 type  1   force =     0.00000000    0.00000000    0.00000000
     atom   23 type  1   force =    -0.00016600   -0.00016600   -0.00000000
     atom   24 type  1   force =     0.00215259    0.00000000   -0.00215259
     atom   25 type  1   force =     0.00000000    0.00016600   -0.00016600
     atom   26 type  1   force =     0.00000000    0.00000000    0.00000000
     atom   27 type  1   force =     0.00215259   -0.00215259   -0.00000000
     atom   28 type  1   force =    -0.00016600   -0.00000000   -0.00016600
     atom   29 type  1   force =    -0.00000000    0.00016600    0.00016600
     atom   30 type  1   force =     0.00000000    0.00000000    0.00000000
     atom   31 type  1   force =    -0.00016600    0.00016600    0.00000000
     atom   32 type  1   force =    -0.00016600    0.00000000    0.00016600

     Total force =     0.010577     Total SCF correction =     0.000012


     Computing stress (Cartesian axis) and pressure

          total   stress  (Ry/bohr**3)                   (kbar)     P=      -10.00
  -0.00006796   0.00000000   0.00000000          -10.00        0.00        0.00
   0.00000000  -0.00006796   0.00000000            0.00      -10.00        0.00
   0.00000000   0.00000000  -0.00006796            0.00        0.00      -10.00


     BFGS Geometry Optimization
     Energy error            =      0.0E+00
     Gradient error          =      2.2E-03

     number of scf cycles    =   1
     number of bfgs steps    =   0

     energy   new            =    -167.5904830211 Ry

     new trust radius        =       0.0030442187 bohr
     new conv_thr            =       0.0000000100 Ry


ATOMIC_POSITIONS (angstrom)
Al            0.0000000000        0.0011391004        0.0011391004
Si            0.0000000000        2.0250000000        2.0250000000
Al            2.0238608996        0.0011391004        2.0250000000
Al            2.0238608996        2.0250000000        0.0011391004
Al           -0.0000000000        0.0011391004        4.0488608996
Al            0.0000000000        2.0250000000        6.0750000000
Al            2.0250878413       -0.0000878413        6.0750000000
Al            2.0238608996        2.0250000000        4.0488608996
Al            0.0000000000        4.0488608996        0.0011391004
Al            0.0000000000        6.0750000000        2.0250000000
Al            2.0238608996        4.0488608996        2.0250000000
Al            2.0250878413        6.0750000000       -0.0000878413
Al           -0.0000000000        4.0488608996        4.0488608996
Al            0.0000000000        6.0750000000        6.0750000000
Al            2.0250878413        4.0500878413        6.0750000000
Al            2.0250878413        6.0750000000        4.0500878413
Al            4.0500000000       -0.0000878413       -0.0000878413
Al            4.0500000000        2.0250000000        2.0250000000
Al            6.0761391004        0.0011391004        2.0250000000
Al            6.0761391004        2.0250000000        0.0011391004
Al            4.0500000000       -0.0000878413        4.0500878413
Al            4.0500000000        2.0250000000        6.0750000000
Al            6.0749121587       -0.0000878413        6.0750000000
Al            6.0761391004        2.0250000000        4.0488608996
Al            4.0500000000        4.0500878413       -0.0000878413
Al            4.0500000000        6.0750000000        2.0250000000
Al            6.0761391004        4.0488608996        2.0250000000
Al            6.0749121587        6.0750000000       -0.0000878413
Al            4.0500000000        4.0500878413        4.0500878413
Al            4.0500000000        6.0750000000        6.0750000000
Al            6.0749121587        4.0500878413        6.0750000000
Al            6.0749121587        6.0750000000        4.0500878413



     Writing output data file qe_tmp/Al31Si.save/
     NEW-OLD atomic charge density approx. for the potential

     total cpu time spent up to now is     8456.3 secs

     Self-consistent Calculation

     iteration #  1     ecut=    50.00 Ry     beta= 0.70
     Davidson diagonalization with overlap
     ethr =  1.00E-06,  avg # of iterations =  2.0

     Threshold (ethr) on eigenvalues was too large:
     Diagonalizing with lowered threshold

     Davidson diagonalization with overlap
     ethr =  1.80E-09,  avg # of iterations =  9.9

     total cpu time spent up to now is    10217.5 secs

     total energy              =    -167.59057546 Ry
     estimated scf accuracy    <       0.00001926 Ry

     iteration #  2     ecut=    50.00 Ry     beta= 0.70
     Davidson diagonalization with overlap
     ethr =  1.99E-08,  avg # of iterations =  5.6

     total cpu time spent up to now is    10912.4 secs

     total energy              =    -167.59055807 Ry
     estimated scf accuracy    <       0.00025934 Ry

     iteration #  3     ecut=    50.00 Ry     beta= 0.70
     Davidson diagonalization with overlap
     ethr =  1.99E-08,  avg # of iterations =  5.4

     total cpu time spent up to now is    11606.7 secs

     total energy              =    -167.59058748 Ry
     estimated scf accuracy    <       0.00000460 Ry

     iteration #  4     ecut=    50.00 Ry     beta= 0.70
     Davidson diagonalization with overlap
     ethr =  4.74E-09,  avg # of iterations =  2.8

     total cpu time spent up to now is    12154.2 secs

     total energy              =    -167.59058846 Ry
     estimated scf accuracy    <       0.00000003 Ry

     iteration #  5     ecut=    50.00 Ry     beta= 0.70
     Davidson diagonalization with overlap
     c_bands:  1 eigenvalues not converged
     ethr =  3.33E-11,  avg # of iterations = 10.1

     total cpu time spent up to now is    13353.5 secs

     total energy              =    -167.59058856 Ry
     estimated scf accuracy    <       0.00000007 Ry

     iteration #  6     ecut=    50.00 Ry     beta= 0.70
     Davidson diagonalization with overlap
     ethr =  3.33E-11,  avg # of iterations =  2.2

     total cpu time spent up to now is    13900.9 secs

     End of self-consistent calculation

          k = 0.0000 0.0000 0.0000 ( 21367 PWs)   bands (ev):

    -3.3496  -1.5871  -1.0039  -1.0039  -1.0039  -0.9787  -0.9787   0.5590
     1.1293   1.1293   1.1293   1.2244   1.2244   1.2244   1.2253   1.2253
     1.2273   1.2273   1.2273   3.1729   3.2181   3.2181   3.2181   3.3036
     3.5022   3.5022   3.5022   4.8831   4.8831   4.8831   5.9935   6.2720
     6.2720   6.7386   6.7386   6.7386   7.0246   7.0246   7.0246   7.0366
     7.0366   7.0366   7.0370   7.0370   7.0370   7.9801   7.9801   7.9801
     8.0412   8.0412   8.0612   8.0637   8.8984   8.8985   8.9424   8.9424
     8.9451   8.9452   8.9452

          k = 0.0000 0.0000 0.1250 ( 21419 PWs)   bands (ev):

    -3.3159  -1.7406  -1.2743  -0.9692  -0.9692  -0.9440  -0.4657   0.3467
     0.6853   0.6853   0.7126   1.0575   1.2125   1.2125   1.2586   1.6156
     1.7828   1.7828   1.8060   2.7015   2.8358   2.8358   2.8864   3.7580
     3.9495   3.9495   3.9848   4.3102   4.9153   4.9153   6.0522   6.2613
     6.3061   6.4102   6.4102   6.4870   6.5031   6.5031   6.8289   6.9331
     6.9331   7.0570   7.0690   7.5267   7.5267   7.6665   7.8275   8.1654
     8.2615   8.2615   8.3414   8.4430   8.5127   8.5127   8.5882   8.5993
     8.6020   8.6020   8.6168

          k = 0.0000 0.0000 0.2500 ( 21418 PWs)   bands (ev):

    -3.2156  -2.1047  -1.2604  -0.8654  -0.8654  -0.8399  -0.0705   0.2248
     0.2404   0.2404   0.2658   1.1318   1.3141   1.3141   1.3612   2.1332
     2.3522   2.3823   2.3823   2.4480   2.4480   2.4497   2.4506   3.4188
     4.3834   4.5717   4.5717   4.6176   5.0125   5.0125   5.3321   5.5937
     5.5937   5.6186   6.0513   6.0513   6.2373   6.4082   7.0144   7.0144
     7.1543   7.1664   7.2299   7.4575   7.6107   7.7125   7.7125   7.7488
     7.8787   8.0345   8.0345   8.1932   8.1971   8.1971   8.2052   8.3577
     8.5375   8.5375   8.5636

          k = 0.0000 0.0000 0.3750 ( 21446 PWs)   bands (ev):

    -3.0555  -2.4530  -1.1645  -0.6927  -0.6927  -0.6666  -0.3268  -0.1375
    -0.1375  -0.1133   0.8670   1.2923   1.4825   1.4825   1.5320   1.9047
     2.0339   2.0339   2.0769   2.5431   2.9185   3.1339   3.1339   3.1584
     4.4723   4.7187   4.7187   4.7508   5.0752   5.1428   5.1428   5.2994
     5.2994   5.3161   5.7065   5.7065   6.3487   6.5773   6.6675   6.8425
     6.8425   6.8907   7.0469   7.1084   7.1818   7.1818   7.3164   7.3286
     7.7429   7.7429   7.8362   7.8480   8.4451   8.7086   8.7086   8.7633
     8.8458   8.8458   9.0940

          k = 0.0000 0.0000-0.5000 ( 21426 PWs)   bands (ev):

    -2.9133  -2.6599  -1.1034  -0.4753  -0.4753  -0.4508  -0.4277  -0.4235
    -0.4235  -0.4208   1.2637   1.6771   1.6771   1.6843   1.7634   1.7673
     1.7690   1.7725   1.7725   1.7741   3.6215   3.7102   3.8794   3.8794
     3.9216   3.9216   3.9257   3.9279   5.3108   5.3108   5.4803   5.4803
     5.7173   5.8965   6.0170   6.0170   6.0692   6.0692   6.0755   6.0757
     6.6097   6.7955   6.8043   6.8197   7.2994   7.2994   7.5332   7.5524
     7.5534   7.5534   7.5544   7.5592   8.5499   8.9278   8.9278   8.9953
     9.0143   9.0155   9.0180

          k = 0.0000 0.1250 0.1250 ( 21407 PWs)   bands (ev):

    -3.2822  -1.7848  -1.4779  -1.0930  -0.9346  -0.5162  -0.3684   0.0751
     0.4942   0.6962   0.7203   0.7465   1.1794   1.2464   1.6343   1.7904
     1.8171   1.8396   2.2659   2.3309   2.3596   3.2820   3.3264   3.4000
     3.5711   4.3233   4.3638   4.4277   4.5290   4.9485   5.8220   5.9631
     6.2224   6.3203   6.3495   6.4739   6.4832   6.5791   6.6095   6.7947
     6.8917   6.9623   6.9983   7.4763   7.6180   7.7182   7.9640   8.0148
     8.0442   8.0508   8.1101   8.1186   8.3018   8.3579   8.7208   8.7290
     8.7420   9.0300   9.0693

          k = 0.0000 0.1250 0.2500 ( 21406 PWs)   bands (ev):

    -3.1821  -2.0791  -1.5067  -1.0168  -0.8307  -0.4211  -0.2834   0.1096
     0.2653   0.2744   0.7033   0.8086   0.8253   1.6823   1.8801   1.8939
     1.9075   1.9399   2.3763   2.4606   2.8799   2.9895   2.9962   3.4546
     3.9685   4.1005   4.4461   5.0163   5.0258   5.0515   5.1759   5.4759
     5.5389   5.6207   6.0800   6.1004   6.3323   6.5018   6.5907   6.6469
     6.9450   7.1098   7.2362   7.3496   7.5336   7.5719   7.6835   7.7113
     7.7451   7.9225   7.9771   8.0670   8.1744   8.2154   8.2970   8.6977
     8.8910   9.0484   9.0979

          k = 0.0000 0.1250 0.3750 ( 21434 PWs)   bands (ev):

    -3.0226  -2.4202  -1.3823  -0.9145  -0.6582  -0.6506  -0.2658  -0.1032
    -0.0973   0.3972   0.8095   0.9954   0.9992   1.4488   1.5435   1.9601
     2.0871   2.4811   2.5733   2.6271   2.6290   3.0770   3.1678   3.6671
     4.1388   4.5453   4.6586   4.7263   4.7411   4.8033   5.1483   5.2004
     5.2438   5.7262   5.7390   5.8714   6.2205   6.3754   6.5299   6.6660
     6.7441   6.8081   7.0121   7.1538   7.2266   7.2724   7.3304   7.3464
     7.4408   7.6804   7.8149   8.1669   8.3382   8.3543   8.7475   8.8579
     9.0293   9.1923   9.3176

          k = 0.0000 0.1250-0.5000 ( 21398 PWs)   bands (ev):

    -2.8819  -2.6248  -1.2801  -0.9494  -0.6673  -0.4409  -0.4013  -0.3889
     0.0330   0.1568   0.9757   1.2099   1.2477   1.2616   1.6949   1.7390
     2.1391   2.2994   2.3378   2.3505   3.3001   3.3535   3.8134   3.8535
     3.9122   3.9548   4.4117   4.4457   4.7429   4.9148   5.3266   5.4056
     5.4842   5.5127   5.5674   5.5740   6.3815   6.5472   6.5964   6.6357
     6.7098   6.8337   6.8395   6.9129   7.0274   7.0310   7.0313   7.0685
     7.3252   7.4304   7.9811   8.1072   8.3501   8.5193   9.0336   9.1019
     9.1959   9.4568   9.5584

          k = 0.0000 0.2500 0.2500 ( 21408 PWs)   bands (ev):

    -3.0829  -2.0672  -1.8264  -1.0018  -0.7270  -0.7196   0.0177   0.3542
     0.3662   0.3668   0.4010   0.4030   1.2972   1.4495   1.4725   1.4754
     2.3469   2.5357   2.5594   2.5856   3.4365   3.4492   3.5223   3.5786
     3.6064   3.7097   3.7772   4.5477   4.6771   5.1263   5.5414   5.5955
     5.6335   5.7155   5.7970   5.8803   6.1235   6.2556   6.4454   6.6279
     6.6366   6.7592   6.7962   6.8146   6.8277   7.2322   7.5321   7.7121
     7.9874   8.0903   8.1974   8.3325   8.6551   8.7120   8.8609   8.9031
     8.9228   9.0123   9.0355

          k = 0.0000 0.2500 0.3750 ( 21434 PWs)   bands (ev):

    -2.9256  -2.3260  -1.7640  -1.2063  -0.7320  -0.5546  -0.1415  -0.0003
     0.3797   0.5388   0.5510   0.9558   1.0798   1.0927   1.1007   2.1206
     2.5458   2.6964   2.7271   3.1361   3.2247   3.2415   3.2890   3.6540
     3.7744   4.1940   4.2699   4.3580   4.3670   4.7502   4.8433   5.2916
     5.6857   5.8086   5.8377   5.9341   5.9397   5.9570   6.3378   6.3436
     6.3717   6.4570   6.5015   6.6620   6.8834   7.0727   7.5375   7.7961
     7.9359   8.0564   8.2096   8.3315   8.4164   8.7171   8.9021   9.0099
     9.0242   9.2032   9.4853

          k = 0.0000 0.2500-0.5000 ( 21376 PWs)   bands (ev):

    -2.7904  -2.5195  -1.6307  -1.4011  -0.6382  -0.3378  -0.2976  -0.2852
     0.4827   0.7467   0.7670   0.7973   0.8150   0.8164   1.7951   1.8398
     2.6942   2.9133   2.9218   2.9359   2.9884   2.9915   3.8046   3.9416
     3.9802   4.0098   4.0299   4.0539   4.9295   5.0034   5.0756   5.0968
     5.1256   5.1421   5.4583   5.6098   5.9237   6.1334   6.1655   6.1702
     6.5243   6.6466   6.7404   6.9118   7.1353   7.1778   7.2398   7.2628
     7.8973   8.0897   8.2360   8.2742   8.3749   8.4945   8.5812   8.7246
     9.6420   9.7509   9.9021

          k = 0.0000 0.3750 0.3750 ( 21364 PWs)   bands (ev):

    -2.7747  -2.2336  -2.0359  -1.5567  -0.6206  -0.3825  -0.0515   0.1485
     0.1723   0.1966   0.6391   0.7248   1.1394   1.2767   1.7411   1.7868
     2.7464   2.8534   3.1955   3.3311   3.4012   3.4137   3.4510   3.4593
     3.8130   3.8502   3.9794   4.1183   4.8474   4.8810   4.9432   4.9959
     5.1842   5.4300   5.4495   5.5710   5.5821   5.6016   5.9422   6.0611
     6.4849   6.5294   6.5557   6.7489   7.0794   7.1883   7.3562   7.5287
     7.9508   8.2044   8.5830   8.6732   8.7196   8.7571   9.0297   9.1775
     9.3147   9.5972   9.6875

          k = 0.0000 0.3750-0.5000 ( 21380 PWs)   bands (ev):

    -2.6543  -2.3442  -1.9487  -1.7845  -0.5313  -0.1674  -0.1252  -0.1126
     0.2397   0.3921   0.4263   0.4387   1.3555   1.5244   1.9653   2.0064
     2.4942   2.5582   3.0006   3.1403   3.4290   3.6249   3.6699   3.6911
     4.0927   4.1028   4.1679   4.2155   4.5837   4.7054   4.7512   4.7807
     5.1035   5.2640   5.3065   5.3097   5.6157   5.7235   5.7562   5.7717
     6.1849   6.2901   6.8901   6.9612   7.2901   7.5418   7.6571   7.7303
     7.8208   7.8659   7.9240   7.9521   9.2183   9.3267   9.4050   9.4073
     9.4893   9.5047   9.5307

          k = 0.0000-0.5000-0.5000 ( 21392 PWs)   bands (ev):

    -2.5599  -2.1058  -2.1058  -2.0922  -0.4592   0.0288   0.1036   0.1036
     0.1277   0.1277   0.1292   0.1300   1.8985   2.1786   2.1786   2.3059
     2.3062   2.3100   2.3105   2.3105   4.0097   4.1615   4.1615   4.1699
     4.3428   4.3462   4.3462   4.3463   4.3478   4.5641   4.5641   4.5860
     4.5860   4.5894   4.5931   4.5959   5.7306   5.9963   5.9963   6.0005
     6.4225   6.4225   6.4796   6.5157   7.0923   7.4653   7.4653   7.4677
     8.5320   8.5320   8.5450   8.6393   8.6862   8.6993   8.6993   8.7026
     9.7170  10.1553  10.1567

          k = 0.1250 0.1250 0.1250 ( 21410 PWs)   bands (ev):

    -3.2485  -1.8092  -1.4431  -1.4431  -0.6295  -0.3340  -0.3340   0.0198
     0.2188   0.2188   0.9945   1.2555   1.2555   1.3272   1.3272   1.3296
     1.8094   2.2262   2.4042   2.4042   2.8482   2.9025   2.9025   3.8874
     4.0139   4.0139   4.3412   4.3988   4.3988   5.0452   5.7498   5.9189
     5.9189   6.0280   6.0280   6.0308   6.7077   6.8959   6.8959   6.9675
     6.9933   6.9933   7.0784   7.0784   7.0843   7.4839   7.5947   7.5947
     8.2656   8.3696   8.3696   8.5358   8.5358   8.5419   8.5951   8.6071
     8.6071   8.6583   8.6583

          k = 0.1250 0.1250 0.2500 ( 21399 PWs)   bands (ev):

    -3.1487  -2.0543  -1.5371  -1.3387  -0.5800  -0.2569  -0.2411  -0.2183
     0.2022   0.3148   0.7303   0.8700   1.2719   1.3821   1.4059   1.8423
     1.9632   2.3641   2.4708   2.4916   2.9377   3.0471   3.4203   3.4817
     3.6410   4.4229   4.4761   4.5958   4.6582   4.9928   5.1439   5.5126
     5.5442   5.6703   5.9428   6.0587   6.1382   6.2522   6.6854   6.9100
     7.0116   7.0523   7.1016   7.1796   7.1921   7.5558   7.6282   7.6941
     7.7829   7.9448   8.0954   8.1060   8.2078   8.2110   8.6060   8.6403
     8.7989   9.1410   9.2588

          k = 0.1250 0.1250 0.3750 ( 21424 PWs)   bands (ev):

    -2.9898  -2.3877  -1.4291  -1.1651  -0.7773  -0.6095  -0.2305  -0.0576
     0.3276   0.4613   0.4935   0.9383   1.0165   1.4914   1.5502   2.0323
     2.1011   2.5111   2.5969   2.6512   2.6743   3.1573   3.6326   3.7497
     4.0968   4.2453   4.2695   4.6263   4.6494   5.1353   5.1757   5.2128
     5.2805   5.3312   5.3597   5.8192   6.1919   6.2803   6.3578   6.7234
     6.7897   6.8305   6.9233   7.1017   7.2045   7.2833   7.3093   7.6156
     7.7217   7.8082   7.8307   7.9616   8.3416   8.3914   8.7626   8.8178
     9.1596   9.3163   9.3586

          k = 0.1250 0.1250-0.5000 ( 21386 PWs)   bands (ev):

    -2.8507  -2.5897  -1.3390  -0.9363  -0.9220  -0.9071  -0.1279   0.1689
     0.1835   0.1987   0.6009   0.7416   1.5368   1.7444   1.7624   1.8320
     1.8390   1.8403   2.7764   2.9162   3.2763   3.3399   3.4344   3.4540
     4.3524   4.4165   4.4980   4.5231   4.7046   4.8291   4.9429   4.9506
     5.0355   5.0375   5.9787   6.0537   6.0650   6.1351   6.3323   6.4835
     6.5364   6.5426   7.0025   7.1519   7.3171   7.3622   7.4475   7.4694
     7.4844   7.4961   7.5842   7.5856   8.8514   8.9339   9.0838   9.0911
     9.1304   9.1434   9.1592

          k = 0.1250 0.2500 0.2500 ( 21396 PWs)   bands (ev):

    -3.0497  -2.0437  -1.7915  -1.3297  -0.7950  -0.3547  -0.1524  -0.1259
     0.2830   0.4231   0.8019   0.9511   0.9733   1.4256   1.4835   1.9365
     2.0166   2.0650   2.9590   3.0866   3.0990   3.1575   3.5441   3.6105
     3.6347   4.1458   4.2210   4.5337   4.6043   4.7098   5.1476   5.1910
     5.2480   5.5809   5.6908   6.1011   6.2736   6.2767   6.3233   6.3315
     6.6981   6.7488   6.8010   7.0796   7.2789   7.3696   7.6571   7.7868
     7.9711   8.1184   8.1695   8.2778   8.3546   8.3859   8.7497   8.8363
     9.0967   9.1122   9.2617

          k = 0.1250 0.2500 0.3750 ( 21425 PWs)   bands (ev):

    -2.8932  -2.2939  -1.7365  -1.2373  -1.0678  -0.5924  -0.1252   0.0265
     0.4144   0.5720   0.5888   1.0029   1.1166   1.1356   1.6338   2.1074
     2.2065   2.6286   2.7201   2.7721   3.2425   3.6360   3.6986   3.7819
     3.8208   3.9309   4.2686   4.3235   4.3420   4.7297   4.8797   5.2257
     5.2619   5.3732   5.5156   5.7440   5.8987   5.9257   5.9981   6.3551
     6.3846   6.4880   6.9471   6.9847   7.2666   7.3843   7.5054   7.8868
     7.8904   8.2243   8.3534   8.3820   8.4482   8.5705   8.8329   8.9025
     9.0381   9.0824   9.2620

          k = 0.1250 0.2500-0.5000 ( 21404 PWs)   bands (ev):

    -2.7597  -2.4844  -1.6115  -1.3663  -0.9789  -0.8104  -0.0201   0.2375
     0.2887   0.3005   0.7056   0.8430   1.2488   1.3909   1.8296   1.8735
     2.3352   2.4784   2.9000   2.9563   3.3890   3.4895   3.4948   3.5575
     3.8971   4.0573   4.4835   4.5280   4.5695   4.6333   4.9049   5.0443
     5.0773   5.1036   5.4812   5.6569   5.6645   5.6808   5.9955   6.1191
     6.5872   6.6632   6.7161   6.7313   7.3708   7.5151   7.7435   7.7798
     8.0488   8.1934   8.2040   8.3290   8.4029   8.5048   8.5886   8.6844
     9.1478   9.2577   9.7525

          k = 0.1250 0.3750 0.3750 ( 21399 PWs)   bands (ev):

    -2.7434  -2.2026  -2.0010  -1.5267  -0.9946  -0.4997  -0.3328   0.0762
     0.1953   0.6183   0.7679   1.1519   1.2847   1.3109   1.7768   1.8206
     2.7168   2.8695   2.8768   2.9520   3.3265   3.4242   3.4308   3.4816
     3.8733   4.0132   4.3955   4.4724   4.5030   4.5725   4.8744   4.9893
     5.0331   5.0925   5.3928   5.4922   5.5169   5.6077   5.9964   6.0554
     6.1466   6.5766   6.5932   6.6573   7.3654   7.6884   7.9088   8.0925
     8.1799   8.1906   8.2640   8.5024   8.5725   8.6378   9.0782   9.1457
     9.2374   9.2434   9.3605

          k = 0.1250 0.3750-0.5000 ( 21438 PWs)   bands (ev):

    -2.6249  -2.3092  -1.9172  -1.7496  -0.8604  -0.6372  -0.2363  -0.0840
     0.2751   0.4663   0.8781   1.0151   1.3984   1.5585   1.9991   2.0400
     2.5239   2.5913   3.0062   3.0578   3.1718   3.1865   3.6326   3.6621
     4.0494   4.1091   4.2115   4.3785   4.5866   4.6326   4.7690   4.9098
     5.0620   5.2079   5.2597   5.2991   5.5947   5.6545   5.7453   5.8126
     5.8643   5.8964   7.2616   7.2692   7.3377   7.4236   7.6436   7.8809
     8.2051   8.3231   8.4332   8.4636   8.7051   8.8856   8.9124   8.9661
     9.2739   9.3132   9.6180

          k = 0.1250-0.5000-0.5000 ( 21408 PWs)   bands (ev):

    -2.5324  -2.0709  -2.0709  -2.0573  -0.7560  -0.4018  -0.4018  -0.3880
     0.3878   0.6995   0.6995   0.7138   1.9338   2.2116   2.2116   2.3398
     2.3401   2.3439   2.3444   2.3444   3.5962   3.8219   3.8219   3.9501
     3.9509   3.9543   3.9548   3.9548   4.6505   4.9554   4.9554   5.0498
     5.0507   5.0544   5.0544   5.0544   5.1910   5.4291   5.4291   5.4403
     6.5145   6.5145   6.5196   6.5953   7.6699   8.0302   8.0302   8.0421
     8.1123   8.1244   8.1244   8.2016   9.1444   9.1673   9.1673   9.2414
     9.2510   9.5598   9.6247

          k = 0.2500 0.2500 0.2500 ( 21428 PWs)   bands (ev):

    -2.9518  -2.0154  -1.6869  -1.6869  -0.8276  -0.5748  -0.5748   0.2339
     0.4961   0.5260   0.5260   1.3235   1.5595   1.5595   1.6335   1.6335
     1.6359   2.5842   2.6709   2.6709   3.5427   3.6569   3.6995   3.6995
     3.7909   3.7909   4.5130   4.7249   4.7249   4.7704   4.8236   4.8236
     4.8263   4.8677   4.8677   5.7404   5.8848   5.8848   6.7704   6.7988
     6.7988   6.9395   6.9453   6.9453   6.9510   7.8248   7.8780   7.8780
     8.0048   8.0048   8.0109   8.0677   8.2278   8.2278   9.0951   9.2016
     9.2018   9.3225   9.3244

          k = 0.2500 0.2500 0.3750 ( 21397 PWs)   bands (ev):

    -2.7980  -2.2024  -1.7108  -1.5128  -1.1018  -0.9558  -0.4744   0.0719
     0.4878   0.6973   1.0734   1.2173   1.2451   1.6929   1.7530   2.1756
     2.2895   2.2935   2.3457   2.7977   3.3281   3.7097   3.8605   3.8673
     3.8852   3.9456   4.3336   4.3703   4.4059   4.4854   4.4868   4.8465
     4.9706   4.9870   5.4270   5.5044   5.5075   5.5631   5.9625   6.0816
     6.9817   6.9970   7.0870   7.1411   7.4928   7.5436   7.6046   7.6187
     7.6263   8.2413   8.3673   8.5634   8.6750   8.8186   8.9384   9.1325
     9.1986   9.2143   9.3224

          k = 0.2500 0.2500-0.5000 ( 21422 PWs)   bands (ev):

    -2.6708  -2.3792  -1.6202  -1.2831  -1.2693  -1.2544  -0.3157  -0.1530
     0.5988   0.9215   0.9377   0.9535   1.7410   1.9457   1.9635   2.0357
     2.0423   2.0435   2.9286   3.0077   3.0985   3.1173   3.8766   4.0123
     4.0393   4.0541   4.1558   4.1618   4.2221   4.3125   4.9666   5.0434
     5.1180   5.1221   5.1595   5.3182   5.3459   5.3779   6.2152   6.2525
     6.2676   6.3325   7.1732   7.2310   7.3480   7.3507   8.1272   8.1876
     8.2704   8.2849   8.2881   8.4162   8.5750   8.6547   8.7662   8.7702
     9.2679   9.3550   9.3996

          k = 0.2500 0.3750 0.3750 ( 21425 PWs)   bands (ev):

    -2.6520  -2.1145  -1.8962  -1.4909  -1.3457  -0.9115  -0.7825  -0.2877
     0.7052   1.1437   1.3854   1.4010   1.4280   1.8364   1.9218   1.9467
     2.3712   2.5020   2.8610   2.9533   3.0138   3.0469   3.4438   3.5684
     3.9340   4.0658   4.0796   4.3997   4.5085   4.5403   4.6133   4.6533
     4.7673   5.0034   5.1236   5.1818   5.2568   6.1224   6.2031   6.2161
     6.6527   6.6770   6.7548   6.7882   7.6119   7.7329   7.8028   7.8092
     8.1534   8.2387   8.3025   8.3061   8.5888   9.0032   9.1322   9.1400
     9.2562   9.3450   9.5448

          k = 0.2500 0.3750-0.5000 ( 21448 PWs)   bands (ev):

    -2.5409  -2.2041  -1.8284  -1.6450  -1.2505  -1.0880  -0.6603  -0.5331
     0.8344   1.1165   1.4306   1.5992   1.6547   1.6685   2.1005   2.1404
     2.5540   2.6850   2.6854   2.7523   3.0998   3.2288   3.2350   3.2800
     3.7212   3.7686   4.1431   4.2742   4.3217   4.3394   4.7298   4.7619
     4.8456   4.9218   5.3398   5.3941   5.8459   5.8873   5.9153   5.9696
     6.3620   6.4909   6.9267   6.9809   7.4214   7.4660   7.8696   8.0347
     8.3984   8.4621   8.5078   8.5647   8.6248   8.8647   8.9909   9.0271
     9.0472   9.1039   9.2723

          k = 0.2500-0.5000-0.5000 ( 21452 PWs)   bands (ev):

    -2.4547  -1.9661  -1.9661  -1.9524  -1.1398  -0.8517  -0.8517  -0.8382
     0.9504   1.3482   1.3482   1.3635   2.0447   2.3098   2.3098   2.4415
     2.4418   2.4455   2.4461   2.4461   3.1873   3.4060   3.4060   3.5195
     3.5199   3.5236   3.5242   3.5242   4.3365   4.5480   4.5480   4.5610
     5.2632   5.5666   5.5666   5.6751   5.6757   5.6795   5.6798   5.6798
     6.6211   6.6303   6.6303   6.7087   7.6433   7.6965   7.6965   7.7731
     8.4171   8.6890   8.6890   8.7430   8.7774   8.7778   8.7816   8.7818
     8.7818   9.0802   9.0847

          k = 0.3750 0.3750 0.3750 ( 21434 PWs)   bands (ev):

    -2.5164  -2.0102  -1.7218  -1.7218  -1.3345  -1.1640  -1.1640  -0.6587
     1.1702   1.5823   1.5823   1.8699   2.0613   2.0613   2.1419   2.1419
     2.1444   2.5606   2.6373   2.6373   3.0419   3.1624   3.1624   3.4979
     3.6814   3.6814   3.7478   3.7478   3.7503   4.1578   4.2669   4.2669
     5.1332   5.3687   5.3687   5.7956   5.8704   5.8704   6.7489   6.7859
     6.7859   6.9437   6.9437   6.9492   7.3400   7.3726   7.3726   7.4748
     7.4748   7.4803   8.3096   8.4607   8.4607   8.8880   8.9709   9.0166
     9.0166   9.5640   9.7627

          k = 0.3750 0.3750-0.5000 ( 21392 PWs)   bands (ev):

    -2.4225  -2.0293  -1.7431  -1.4917  -1.4780  -1.4633  -1.0210  -0.9142
     1.3192   1.8015   1.8213   1.8395   2.1179   2.2789   2.2931   2.3743
     2.3799   2.3809   2.7356   2.8117   2.8966   2.9149   3.2005   3.3548
     3.4003   3.4477   3.4486   3.4493   3.8254   3.9577   3.9710   3.9844
     5.3977   5.6117   5.9738   6.0206   6.0999   6.1355   6.5514   6.5780
     6.5840   6.6600   7.0184   7.0544   7.1785   7.1814   7.5429   7.6015
     7.6488   7.6859   8.0777   8.1507   8.2057   8.2257   8.6297   8.7324
     9.5269   9.7639   9.8967

          k = 0.3750-0.5000-0.5000 ( 21412 PWs)   bands (ev):

    -2.3499  -1.7916  -1.7916  -1.7777  -1.4369  -1.2335  -1.2335  -1.2202
     1.4930   2.0582   2.0582   2.0770   2.2661   2.4688   2.4688   2.6107
     2.6110   2.6148   2.6153   2.6153   2.8774   3.0530   3.0530   3.1506
     3.1509   3.1546   3.1552   3.1552   3.5095   3.6728   3.6728   3.6838
     5.9256   6.2376   6.2376   6.3671   6.3677   6.3715   6.3719   6.3719
     6.7811   6.8010   6.8010   6.8779   7.2605   7.3401   7.3401   7.4097
     7.6356   7.8499   7.8499   7.9276   7.9280   7.9318   7.9322   7.9322
     9.8473  10.2470  10.2484

          k =-0.5000-0.5000-0.5000 ( 21368 PWs)   bands (ev):

    -2.2904  -1.5613  -1.5613  -1.5613  -1.5341  -1.5330  -1.5330  -1.5330
     1.7445   2.5854   2.5854   2.5854   2.8415   2.8415   2.8440   2.8440
     2.8440   2.8486   2.8486   2.8486   2.8487   2.8497   2.8497   2.8497
     2.8529   2.8529   2.8531   2.8531   2.8531   2.8534   2.8534   2.8534
     6.4752   6.7643   6.7643   6.7643   7.0980   7.0980   7.0980   7.1188
     7.1194   7.1194   7.1213   7.1213   7.1213   7.1226   7.1226   7.1226
     7.1230   7.1230   7.1254   7.1254   7.1254   7.1254   7.1254   7.1254
    10.7042  10.9249  10.9249

     the Fermi energy is     7.8862 ev

!    total energy              =    -167.59058856 Ry
     estimated scf accuracy    <          8.2E-09 Ry
     smearing contrib. (-TS)   =       0.00029297 Ry
     internal energy E=F+TS    =    -167.59088154 Ry

     The total energy is F=E-TS. E is the sum of the following terms:
     one-electron contribution =      94.41759010 Ry
     hartree contribution      =       0.59750712 Ry
     xc contribution           =     -86.30236986 Ry
     ewald contribution        =    -176.30360890 Ry

     convergence has been achieved in   6 iterations

     Forces acting on atoms (cartesian axes, Ry/au):

     atom    1 type  1   force =     0.00000000    0.00189998    0.00189998
     atom    2 type  2   force =     0.00000000    0.00000000    0.00000000
     atom    3 type  1   force =    -0.00189998    0.00189998    0.00000000
     atom    4 type  1   force =    -0.00189998    0.00000000    0.00189998
     atom    5 type  1   force =     0.00000000    0.00189998   -0.00189998
     atom    6 type  1   force =     0.00000000    0.00000000    0.00000000
     atom    7 type  1   force =     0.00008820   -0.00008820   -0.00000000
     atom    8 type  1   force =    -0.00189998   -0.00000000   -0.00189998
     atom    9 type  1   force =    -0.00000000   -0.00189998    0.00189998
     atom   10 type  1   force =     0.00000000    0.00000000    0.00000000
     atom   11 type  1   force =    -0.00189998   -0.00189998    0.00000000
     atom   12 type  1   force =     0.00008820    0.00000000   -0.00008820
     atom   13 type  1   force =     0.00000000   -0.00189998   -0.00189998
     atom   14 type  1   force =     0.00000000    0.00000000    0.00000000
     atom   15 type  1   force =     0.00008820    0.00008820   -0.00000000
     atom   16 type  1   force =     0.00008820    0.00000000    0.00008820
     atom   17 type  1   force =     0.00000000   -0.00008820   -0.00008820
     atom   18 type  1   force =     0.00000000    0.00000000    0.00000000
     atom   19 type  1   force =     0.00189998    0.00189998   -0.00000000
     atom   20 type  1   force =     0.00189998   -0.00000000    0.00189998
     atom   21 type  1   force =     0.00000000   -0.00008820    0.00008820
     atom   22 type  1   force =     0.00000000    0.00000000    0.00000000
     atom   23 type  1   force =    -0.00008820   -0.00008820    0.00000000
     atom   24 type  1   force =     0.00189998   -0.00000000   -0.00189998
     atom   25 type  1   force =     0.00000000    0.00008820   -0.00008820
     atom   26 type  1   force =     0.00000000    0.00000000    0.00000000
     atom   27 type  1   force =     0.00189998   -0.00189998    0.00000000
     atom   28 type  1   force =    -0.00008820   -0.00000000   -0.00008820
     atom   29 type  1   force =    -0.00000000    0.00008820    0.00008820
     atom   30 type  1   force =     0.00000000    0.00000000    0.00000000
     atom   31 type  1   force =    -0.00008820    0.00008820    0.00000000
     atom   32 type  1   force =    -0.00008820    0.00000000    0.00008820

     Total force =     0.009318     Total SCF correction =     0.000116


     Computing stress (Cartesian axis) and pressure

          total   stress  (Ry/bohr**3)                   (kbar)     P=      -10.00
  -0.00006801   0.00000000   0.00000000          -10.00        0.00        0.00
   0.00000000  -0.00006801   0.00000000            0.00      -10.00        0.00
   0.00000000   0.00000000  -0.00006801            0.00        0.00      -10.00

     Energy error            =      1.1E-04
     Gradient error          =      1.9E-03

     number of scf cycles    =   2
     number of bfgs steps    =   1

     energy   old            =    -167.5904830211 Ry
     energy   new            =    -167.5905885635 Ry

     CASE: energy  _new < energy  _old


     WARNING: bfgs curvature condition failed, Theta= 0.908
     new trust radius        =       0.0033486406 bohr
     new conv_thr            =       0.0000000001 Ry


ATOMIC_POSITIONS (angstrom)
Al            0.0000000000        0.0023921108        0.0023921108
Si            0.0000000000        2.0250000000        2.0250000000
Al            2.0226078892        0.0023921108        2.0250000000
Al            2.0226078892        2.0250000000        0.0023921108
Al            0.0000000000        0.0023921108        4.0476078892
Al            0.0000000000        2.0250000000        6.0750000000
Al            2.0251511001       -0.0001511001        6.0750000000
Al            2.0226078892        2.0250000000        4.0476078892
Al           -0.0000000000        4.0476078892        0.0023921108
Al            0.0000000000        6.0750000000        2.0250000000
Al            2.0226078892        4.0476078892        2.0250000000
Al            2.0251511001        6.0750000000       -0.0001511001
Al           -0.0000000000        4.0476078892        4.0476078892
Al            0.0000000000        6.0750000000        6.0750000000
Al            2.0251511001        4.0501511001        6.0750000000
Al            2.0251511001        6.0750000000        4.0501511001
Al            4.0500000000       -0.0001511001       -0.0001511001
Al            4.0500000000        2.0250000000        2.0250000000
Al            6.0773921108        0.0023921108        2.0250000000
Al            6.0773921108        2.0250000000        0.0023921108
Al            4.0500000000       -0.0001511001        4.0501511001
Al            4.0500000000        2.0250000000        6.0750000000
Al            6.0748488999       -0.0001511001        6.0750000000
Al            6.0773921108        2.0250000000        4.0476078892
Al            4.0500000000        4.0501511001       -0.0001511001
Al            4.0500000000        6.0750000000        2.0250000000
Al            6.0773921108        4.0476078892        2.0250000000
Al            6.0748488999        6.0750000000       -0.0001511001
Al            4.0500000000        4.0501511001        4.0501511001
Al            4.0500000000        6.0750000000        6.0750000000
Al            6.0748488999        4.0501511001        6.0750000000
Al            6.0748488999        6.0750000000        4.0501511001



     Writing output data file qe_tmp/Al31Si.save/
     NEW-OLD atomic charge density approx. for the potential

     total cpu time spent up to now is    14264.5 secs

     Self-consistent Calculation

     iteration #  1     ecut=    50.00 Ry     beta= 0.70
     Davidson diagonalization with overlap
     ethr =  1.00E-06,  avg # of iterations =  2.0

     Threshold (ethr) on eigenvalues was too large:
     Diagonalizing with lowered threshold

     Davidson diagonalization with overlap
     c_bands:  1 eigenvalues not converged
     ethr =  1.10E-09,  avg # of iterations = 11.2

     total cpu time spent up to now is    16199.0 secs

     total energy              =    -167.59067764 Ry
     estimated scf accuracy    <       0.00001579 Ry

     iteration #  2     ecut=    50.00 Ry     beta= 0.70
     Davidson diagonalization with overlap
     ethr =  1.63E-08,  avg # of iterations =  5.8

     total cpu time spent up to now is    16891.0 secs

     total energy              =    -167.59066431 Ry
     estimated scf accuracy    <       0.00019698 Ry

     iteration #  3     ecut=    50.00 Ry     beta= 0.70
     Davidson diagonalization with overlap
     ethr =  1.63E-08,  avg # of iterations =  5.7

     total cpu time spent up to now is    17583.9 secs

     total energy              =    -167.59068712 Ry
     estimated scf accuracy    <       0.00000467 Ry

     iteration #  4     ecut=    50.00 Ry     beta= 0.70
     Davidson diagonalization with overlap
     ethr =  4.81E-09,  avg # of iterations =  2.3

     total cpu time spent up to now is    18131.5 secs

     total energy              =    -167.59068806 Ry
     estimated scf accuracy    <       0.00000003 Ry

     iteration #  5     ecut=    50.00 Ry     beta= 0.70
     Davidson diagonalization with overlap
     ethr =  3.32E-11,  avg # of iterations =  9.4

     total cpu time spent up to now is    19312.7 secs

     total energy              =    -167.59068816 Ry
     estimated scf accuracy    <       0.00000006 Ry

     iteration #  6     ecut=    50.00 Ry     beta= 0.70
     Davidson diagonalization with overlap
     ethr =  3.32E-11,  avg # of iterations =  2.1

     total cpu time spent up to now is    19862.4 secs

     total energy              =    -167.59068816 Ry
     estimated scf accuracy    <          7.1E-09 Ry

     iteration #  7     ecut=    50.00 Ry     beta= 0.70
     Davidson diagonalization with overlap
     ethr =  7.34E-12,  avg # of iterations =  4.5

     total cpu time spent up to now is    20529.1 secs

     total energy              =    -167.59068817 Ry
     estimated scf accuracy    <          8.7E-10 Ry

     iteration #  8     ecut=    50.00 Ry     beta= 0.70
     Davidson diagonalization with overlap
     ethr =  8.94E-13,  avg # of iterations =  4.8

     total cpu time spent up to now is    21124.1 secs

     total energy              =    -167.59068817 Ry
     estimated scf accuracy    <          4.7E-10 Ry

     iteration #  9     ecut=    50.00 Ry     beta= 0.70
     Davidson diagonalization with overlap
     ethr =  4.80E-13,  avg # of iterations =  3.1

     total cpu time spent up to now is    21706.2 secs

     End of self-consistent calculation

          k = 0.0000 0.0000 0.0000 ( 21367 PWs)   bands (ev):

    -3.3512  -1.5927  -1.0041  -1.0041  -1.0041  -0.9762  -0.9762   0.5576
     1.1253   1.1253   1.1253   1.2245   1.2245   1.2245   1.2269   1.2269
     1.2308   1.2308   1.2308   3.1741   3.2181   3.2181   3.2181   3.3036
     3.5022   3.5022   3.5022   4.8827   4.8827   4.8827   5.9931   6.2720
     6.2720   6.7359   6.7359   6.7359   7.0225   7.0225   7.0225   7.0386
     7.0386   7.0386   7.0398   7.0398   7.0398   7.9799   7.9799   7.9799
     8.0380   8.0380   8.0629   8.0674   8.8990   8.8991   8.9431   8.9432
     8.9448   8.9452   8.9452

          k = 0.0000 0.0000 0.1250 ( 21419 PWs)   bands (ev):

    -3.3175  -1.7443  -1.2748  -0.9695  -0.9695  -0.9415  -0.4649   0.3447
     0.6848   0.6848   0.7151   1.0573   1.2124   1.2124   1.2587   1.6141
     1.7830   1.7830   1.8086   2.7019   2.8358   2.8358   2.8864   3.7586
     3.9494   3.9494   3.9849   4.3098   4.9149   4.9149   6.0516   6.2589
     6.3061   6.4084   6.4084   6.4897   6.5042   6.5042   6.8288   6.9333
     6.9333   7.0550   7.0711   7.5273   7.5273   7.6662   7.8274   8.1641
     8.2613   8.2613   8.3441   8.4430   8.5124   8.5124   8.5863   8.5970
     8.6028   8.6028   8.6171

          k = 0.0000 0.0000 0.2500 ( 21418 PWs)   bands (ev):

    -3.2174  -2.1063  -1.2627  -0.8656  -0.8656  -0.8374  -0.0713   0.2242
     0.2402   0.2402   0.2684   1.1321   1.3139   1.3139   1.3612   2.1333
     2.3506   2.3822   2.3822   2.4483   2.4483   2.4497   2.4532   3.4184
     4.3841   4.5716   4.5716   4.6176   5.0121   5.0121   5.3296   5.5935
     5.5935   5.6213   6.0513   6.0513   6.2368   6.4081   7.0143   7.0143
     7.1522   7.1684   7.2298   7.4575   7.6110   7.7123   7.7123   7.7487
     7.8787   8.0356   8.0356   8.1913   8.1971   8.1971   8.2073   8.3556
     8.5374   8.5374   8.5657

          k = 0.0000 0.0000 0.3750 ( 21446 PWs)   bands (ev):

    -3.0578  -2.4534  -1.1675  -0.6931  -0.6931  -0.6641  -0.3283  -0.1376
    -0.1376  -0.1108   0.8674   1.2924   1.4821   1.4821   1.5320   1.9055
     2.0341   2.0341   2.0769   2.5429   2.9161   3.1339   3.1339   3.1610
     4.4701   4.7186   4.7186   4.7534   5.0758   5.1421   5.1421   5.2995
     5.2995   5.3161   5.7066   5.7066   6.3486   6.5772   6.6672   6.8422
     6.8422   6.8907   7.0470   7.1084   7.1818   7.1818   7.3143   7.3306
     7.7438   7.7438   7.8342   7.8501   8.4437   8.7087   8.7087   8.7652
     8.8456   8.8456   9.0933

          k = 0.0000 0.0000-0.5000 ( 21426 PWs)   bands (ev):

    -2.9173  -2.6585  -1.1066  -0.4771  -0.4771  -0.4521  -0.4266  -0.4221
    -0.4221  -0.4169   1.2651   1.6753   1.6753   1.6828   1.7629   1.7661
     1.7706   1.7741   1.7741   1.7753   3.6202   3.7068   3.8800   3.8800
     3.9210   3.9210   3.9277   3.9311   5.3090   5.3090   5.4818   5.4818
     5.7194   5.8958   6.0169   6.0169   6.0688   6.0688   6.0745   6.0767
     6.6078   6.7965   6.8023   6.8215   7.2986   7.2986   7.5296   7.5530
     7.5539   7.5549   7.5549   7.5627   8.5481   8.9267   8.9267   8.9949
     9.0148   9.0169   9.0202

          k = 0.0000 0.1250 0.1250 ( 21407 PWs)   bands (ev):

    -3.2838  -1.7888  -1.4768  -1.0925  -0.9348  -0.5158  -0.3673   0.0738
     0.4950   0.6941   0.7206   0.7483   1.1795   1.2463   1.6338   1.7885
     1.8181   1.8414   2.2663   2.3314   2.3597   3.2820   3.3265   3.4006
     3.5711   4.3229   4.3635   4.4279   4.5290   4.9480   5.8204   5.9635
     6.2221   6.3206   6.3478   6.4741   6.4834   6.5799   6.6102   6.7944
     6.8923   6.9631   6.9979   7.4751   7.6194   7.7175   7.9649   8.0140
     8.0452   8.0483   8.1120   8.1197   8.3024   8.3564   8.7207   8.7284
     8.7427   9.0302   9.0677

          k = 0.0000 0.1250 0.2500 ( 21406 PWs)   bands (ev):

    -3.1839  -2.0809  -1.5073  -1.0165  -0.8310  -0.4208  -0.2837   0.1108
     0.2651   0.2741   0.7046   0.8078   0.8253   1.6833   1.8796   1.8936
     1.9071   1.9401   2.3768   2.4608   2.8805   2.9897   2.9963   3.4542
     3.9689   4.1005   4.4457   5.0154   5.0253   5.0517   5.1759   5.4771
     5.5379   5.6205   6.0799   6.1011   6.3319   6.5017   6.5895   6.6484
     6.9449   7.1096   7.2358   7.3496   7.5345   7.5719   7.6837   7.7117
     7.7450   7.9228   7.9769   8.0666   8.1747   8.2155   8.2968   8.6980
     8.8896   9.0497   9.0978

          k = 0.0000 0.1250 0.3750 ( 21434 PWs)   bands (ev):

    -3.0250  -2.4207  -1.3839  -0.9140  -0.6585  -0.6508  -0.2647  -0.1033
    -0.0973   0.3982   0.8096   0.9953   0.9991   1.4495   1.5436   1.9599
     2.0868   2.4815   2.5725   2.6272   2.6291   3.0773   3.1679   3.6677
     4.1380   4.5453   4.6586   4.7266   4.7411   4.8031   5.1483   5.1998
     5.2445   5.7266   5.7393   5.8712   6.2207   6.3752   6.5292   6.6658
     6.7427   6.8095   7.0123   7.1532   7.2274   7.2721   7.3318   7.3464
[...]
     1.9715   2.3639   2.4714   2.4898   2.9351   3.0553   3.4194   3.4800
     3.6429   4.4200   4.4728   4.5974   4.6587   4.9822   5.1505   5.5116
     5.5442   5.6717   5.9377   6.0667   6.1311   6.2607   6.6840   6.9068
     7.0114   7.0512   7.1041   7.1740   7.1994   7.5568   7.6303   7.6927
     7.7811   7.9435   8.0957   8.1087   8.2041   8.2154   8.6025   8.6456
     8.7979   9.1346   9.2675

          k = 0.1250 0.1250 0.3750 ( 21424 PWs)   bands (ev):

    -3.0074  -2.3906  -1.4417  -1.1591  -0.7797  -0.6021  -0.2413  -0.0514
     0.3329   0.4531   0.5010   0.9447   1.0131   1.4914   1.5475   2.0370
     2.1026   2.5088   2.5913   2.6444   2.6821   3.1600   3.6283   3.7578
     4.0899   4.2428   4.2764   4.6216   4.6456   5.1421   5.1793   5.2032
     5.2812   5.3379   5.3584   5.8186   6.1846   6.2874   6.3586   6.7275
     6.7983   6.8269   6.9227   7.0951   7.2020   7.2865   7.3026   7.6163
     7.7218   7.8164   7.8292   7.9616   8.3426   8.3929   8.7583   8.8212
     9.1574   9.3175   9.3662

          k = 0.1250 0.1250-0.5000 ( 21386 PWs)   bands (ev):

    -2.8791  -2.5806  -1.3561  -0.9400  -0.9211  -0.8899  -0.1405   0.1655
     0.1846   0.2160   0.5931   0.7509   1.5411   1.7325   1.7533   1.8283
     1.8488   1.8510   2.7683   2.9256   3.2707   3.3253   3.4460   3.4574
     4.3550   4.4057   4.5102   4.5268   4.6949   4.8165   4.9494   4.9614
     5.0353   5.0361   5.9898   6.0484   6.0651   6.1326   6.3187   6.4831
     6.5384   6.5602   7.0055   7.1473   7.3071   7.3542   7.4552   7.4745
     7.4808   7.4815   7.5904   7.6000   8.8509   8.9362   9.0839   9.0942
     9.1244   9.1438   9.1510

          k = 0.1250 0.2500 0.2500 ( 21396 PWs)   bands (ev):

    -3.0648  -2.0618  -1.7848  -1.3279  -0.7969  -0.3528  -0.1588  -0.1191
     0.2799   0.4294   0.7973   0.9495   0.9793   1.4267   1.4823   1.9327
     2.0154   2.0734   2.9565   3.0869   3.0940   3.1653   3.5398   3.6084
     3.6377   4.1497   4.2212   4.5274   4.5963   4.7158   5.1487   5.1911
     5.2476   5.5740   5.7007   6.0995   6.2727   6.2753   6.3221   6.3369
     6.7036   6.7552   6.7990   7.0764   7.2707   7.3788   7.6487   7.7944
     7.9692   8.1177   8.1626   8.2823   8.3587   8.3789   8.7545   8.8376
     9.0997   9.1068   9.2670

          k = 0.1250 0.2500 0.3750 ( 21425 PWs)   bands (ev):

    -2.9130  -2.2983  -1.7396  -1.2350  -1.0690  -0.5883  -0.1255   0.0238
     0.4192   0.5689   0.5888   1.0093   1.1127   1.1354   1.6369   2.1081
     2.2022   2.6314   2.7197   2.7729   3.2372   3.6346   3.7004   3.7803
     3.8189   3.9323   4.2740   4.3222   4.3428   4.7245   4.8807   5.2252
     5.2633   5.3707   5.5149   5.7478   5.9044   5.9282   5.9963   6.3596
     6.3816   6.4887   6.9516   6.9856   7.2614   7.3852   7.5047   7.8831
     7.8906   8.2208   8.3568   8.3829   8.4504   8.5697   8.8336   8.9088
     9.0374   9.0796   9.2590

          k = 0.1250 0.2500-0.5000 ( 21404 PWs)   bands (ev):

    -2.7908  -2.4753  -1.6225  -1.3575  -0.9858  -0.8010  -0.0217   0.2226
     0.2941   0.3131   0.6973   0.8524   1.2428   1.3999   1.8334   1.8660
     2.3270   2.4879   2.9018   2.9495   3.3874   3.4870   3.4929   3.5650
     3.8868   4.0671   4.4878   4.5237   4.5715   4.6292   4.8936   5.0546
     5.0828   5.1010   5.4803   5.6545   5.6619   5.6888   5.9936   6.1291
     6.5795   6.6672   6.7134   6.7400   7.3592   7.5233   7.7472   7.7765
     8.0393   8.1997   8.2138   8.3237   8.3896   8.5141   8.5821   8.6938
     9.1550   9.2512   9.7560

          k = 0.1250 0.3750 0.3750 ( 21399 PWs)   bands (ev):

    -2.7693  -2.2098  -1.9942  -1.5230  -0.9990  -0.4976  -0.3258   0.0749
     0.1922   0.6152   0.7745   1.1483   1.2813   1.3163   1.7795   1.8194
     2.7158   2.8566   2.8767   2.9575   3.3288   3.4276   3.4281   3.4866
     3.8604   4.0206   4.3959   4.4746   4.5029   4.5701   4.8713   4.9850
     5.0327   5.1022   5.3879   5.5021   5.5131   5.6060   6.0025   6.0509
     6.1564   6.5815   6.5947   6.6532   7.3584   7.6923   7.9036   8.0977
     8.1845   8.1873   8.2612   8.4952   8.5757   8.6454   9.0832   9.1484
     9.2380   9.2405   9.3545

          k = 0.1250 0.3750-0.5000 ( 21438 PWs)   bands (ev):

    -2.6625  -2.3002  -1.9197  -1.7406  -0.8711  -0.6280  -0.2327  -0.0749
     0.2540   0.4753   0.8792   1.0241   1.3839   1.5674   2.0031   2.0313
     2.5280   2.5870   3.0007   3.0455   3.1828   3.1945   3.6372   3.6570
     4.0404   4.1115   4.2119   4.3832   4.5830   4.6343   4.7727   4.9115
     5.0452   5.2180   5.2622   5.2968   5.5952   5.6598   5.7392   5.8180
     5.8729   5.8985   7.2617   7.2681   7.3447   7.4188   7.6316   7.8865
     8.2063   8.3326   8.4344   8.4587   8.6955   8.8953   8.9158   8.9614
     9.2791   9.3086   9.6068

          k = 0.1250-0.5000-0.5000 ( 21408 PWs)   bands (ev):

    -2.5787  -2.0641  -2.0641  -2.0459  -0.7714  -0.3948  -0.3948  -0.3766
     0.3604   0.7063   0.7063   0.7252   1.9245   2.1898   2.1898   2.3390
     2.3431   2.3583   2.3591   2.3591   3.5869   3.8062   3.8062   3.9496
     3.9538   3.9686   3.9695   3.9695   4.6393   4.9371   4.9371   5.0489
     5.0565   5.0679   5.0679   5.0696   5.1644   5.4377   5.4377   5.4518
     6.5193   6.5193   6.5273   6.5824   7.6518   8.0355   8.0355   8.0537
     8.1116   8.1291   8.1291   8.1879   9.1410   9.1721   9.1721   9.2368
     9.2450   9.5402   9.5403

          k = 0.2500 0.2500 0.2500 ( 21428 PWs)   bands (ev):

    -2.9687  -2.0364  -1.6803  -1.6803  -0.8349  -0.5677  -0.5677   0.2238
     0.4909   0.5322   0.5322   1.3198   1.5462   1.5462   1.6382   1.6382
     1.6576   2.5887   2.6714   2.6714   3.5383   3.6392   3.6982   3.6982
     3.7976   3.7976   4.5091   4.7182   4.7182   4.7684   4.8286   4.8286
     4.8481   4.8638   4.8638   5.7309   5.8940   5.8940   6.7632   6.7950
     6.7950   6.9358   6.9476   6.9476   6.9635   7.8177   7.8793   7.8793
     8.0074   8.0074   8.0220   8.0577   8.2251   8.2251   9.0883   9.1975
     9.1975   9.3231   9.3249

          k = 0.2500 0.2500 0.3750 ( 21397 PWs)   bands (ev):

    -2.8203  -2.2083  -1.7157  -1.5065  -1.1050  -0.9482  -0.4700   0.0793
     0.4676   0.7030   1.0757   1.2119   1.2515   1.6932   1.7505   2.1774
     2.2850   2.2962   2.3531   2.7946   3.3301   3.7033   3.8563   3.8590
     3.8799   3.9534   4.3362   4.3691   4.4091   4.4838   4.4919   4.8413
     4.9793   4.9871   5.4282   5.5050   5.5132   5.5662   5.9541   6.0891
     6.9782   6.9947   7.0835   7.1433   7.4985   7.5510   7.6022   7.6173
     7.6296   8.2343   8.3641   8.5573   8.6844   8.8191   8.9364   9.1342
     9.2001   9.2114   9.3208

          k = 0.2500 0.2500-0.5000 ( 21422 PWs)   bands (ev):

    -2.7047  -2.3702  -1.6322  -1.2864  -1.2681  -1.2373  -0.3144  -0.1438
     0.5759   0.9168   0.9386   0.9708   1.7467   1.9341   1.9536   2.0318
     2.0520   2.0541   2.9264   2.9946   3.1103   3.1208   3.8710   4.0025
     4.0410   4.0418   4.1646   4.1729   4.2178   4.3174   4.9578   5.0382
     5.1215   5.1337   5.1588   5.3269   5.3404   5.3874   6.2222   6.2474
     6.2672   6.3299   7.1692   7.2192   7.3541   7.3645   8.1236   8.1843
     8.2728   8.2878   8.2967   8.4111   8.5654   8.6425   8.7689   8.7788
     9.2660   9.3435   9.4133

          k = 0.2500 0.3750 0.3750 ( 21425 PWs)   bands (ev):

    -2.6811  -2.1222  -1.8896  -1.4875  -1.3467  -0.9097  -0.7752  -0.2811
     0.6890   1.1479   1.3738   1.4040   1.4357   1.8414   1.9205   1.9469
     2.3646   2.5101   2.8567   2.9519   3.0144   3.0471   3.4383   3.5756
     3.9270   4.0670   4.0794   4.3910   4.5033   4.5484   4.6232   4.6455
     4.7753   5.0087   5.1276   5.1811   5.2593   6.1176   6.2035   6.2141
     6.6523   6.6840   6.7490   6.7962   7.6029   7.7360   7.7988   7.8170
     8.1513   8.2445   8.3042   8.3079   8.5799   9.0008   9.1291   9.1470
     9.2567   9.3440   9.5407

          k = 0.2500 0.3750-0.5000 ( 21448 PWs)   bands (ev):

    -2.5817  -2.1952  -1.8311  -1.6361  -1.2581  -1.0785  -0.6581  -0.5238
     0.8132   1.1251   1.4349   1.5834   1.6599   1.6810   2.1036   2.1314
     2.5535   2.6776   2.6816   2.7600   3.0996   3.2273   3.2328   3.2881
     3.7238   3.7670   4.1331   4.2651   4.3302   4.3512   4.7175   4.7614
     4.8562   4.9304   5.3437   5.3863   5.8548   5.8859   5.9164   5.9650
     6.3561   6.5008   6.9303   6.9775   7.4275   7.4603   7.8611   8.0446
     8.4007   8.4557   8.5116   8.5594   8.6144   8.8732   8.9982   9.0239
     9.0512   9.1015   9.2694

          k = 0.2500-0.5000-0.5000 ( 21452 PWs)   bands (ev):

    -2.5039  -1.9594  -1.9594  -1.9411  -1.1534  -0.8445  -0.8445  -0.8268
     0.9257   1.3543   1.3543   1.3748   2.0337   2.2874   2.2874   2.4407
     2.4446   2.4600   2.4608   2.4608   3.1767   3.3910   3.3910   3.5188
     3.5240   3.5380   3.5389   3.5389   4.3114   4.5573   4.5573   4.5725
     5.2524   5.5468   5.5468   5.6740   5.6810   5.6942   5.6942   5.6946
     6.6296   6.6344   6.6344   6.6953   7.6458   7.7004   7.7004   7.7596
     8.4135   8.6717   8.6717   8.7213   8.7761   8.7833   8.7970   8.7974
     8.7974   9.0868   9.0918

          k = 0.3750 0.3750 0.3750 ( 21434 PWs)   bands (ev):

    -2.5535  -2.0165  -1.7156  -1.7156  -1.3380  -1.1564  -1.1564  -0.6522
     1.1493   1.5863   1.5863   1.8680   2.0471   2.0471   2.1467   2.1467
     2.1661   2.5637   2.6390   2.6390   3.0304   3.1592   3.1592   3.4934
     3.6736   3.6736   3.7528   3.7528   3.7721   4.1500   4.2768   4.2768
     5.1162   5.3756   5.3756   5.7990   5.8694   5.8694   6.7376   6.7810
     6.7810   6.9455   6.9455   6.9613   7.3308   7.3741   7.3741   7.4783
     7.4783   7.4920   8.3046   8.4614   8.4614   8.8770   8.9738   9.0261
     9.0261   9.5530   9.7559

          k = 0.3750 0.3750-0.5000 ( 21392 PWs)   bands (ev):

    -2.4704  -2.0204  -1.7441  -1.4949  -1.4768  -1.4462  -1.0180  -0.9048
     1.2990   1.7930   1.8205   1.8568   2.1206   2.2687   2.2802   2.3701
     2.3896   2.3913   2.7317   2.8009   2.9082   2.9184   3.1934   3.3433
     3.3986   3.4465   3.4583   3.4590   3.8211   3.9597   3.9743   4.0019
     5.3845   5.6198   5.9750   6.0064   6.1103   6.1385   6.5573   6.5753
     6.5802   6.6573   7.0170   7.0449   7.1845   7.1951   7.5469   7.5922
     7.6548   7.6829   8.0752   8.1401   8.2201   8.2297   8.6253   8.7433
     9.5267   9.7594   9.8853

          k = 0.3750-0.5000-0.5000 ( 21412 PWs)   bands (ev):

    -2.4050  -1.7853  -1.7853  -1.7664  -1.4449  -1.2258  -1.2258  -1.2088
     1.4741   2.0617   2.0617   2.0883   2.2474   2.4452   2.4452   2.6099
     2.6130   2.6292   2.6301   2.6301   2.8658   3.0411   3.0411   3.1499
     3.1560   3.1691   3.1698   3.1698   3.4875   3.6825   3.6825   3.6954
     5.9149   6.2167   6.2167   6.3656   6.3728   6.3865   6.3865   6.3866
     6.7892   6.8044   6.8044   6.8642   7.2569   7.3438   7.3438   7.3965
     7.6390   7.8343   7.8343   7.9269   7.9333   7.9472   7.9474   7.9474
     9.8307  10.2540  10.2548

          k =-0.5000-0.5000-0.5000 ( 21368 PWs)   bands (ev):

    -2.3504  -1.5644  -1.5644  -1.5644  -1.5286  -1.5158  -1.5158  -1.5158
     1.7334   2.5432   2.5432   2.5432   2.8219   2.8219   2.8315   2.8315
     2.8315   2.8504   2.8504   2.8504   2.8529   2.8657   2.8657   2.8659
     2.8659   2.8659   2.8698   2.8698   2.8698   2.8804   2.8804   2.8804
     6.4697   6.7450   6.7450   6.7450   7.0686   7.0686   7.0686   7.0984
     7.1255   7.1255   7.1256   7.1256   7.1256   7.1323   7.1323   7.1323
     7.1339   7.1339   7.1412   7.1412   7.1412   7.1450   7.1450   7.1450
    10.7010  10.9222  10.9222

     the Fermi energy is     7.8864 ev

!    total energy              =    -167.59093632 Ry
     estimated scf accuracy    <          2.5E-12 Ry
     smearing contrib. (-TS)   =       0.00025585 Ry
     internal energy E=F+TS    =    -167.59119217 Ry

     The total energy is F=E-TS. E is the sum of the following terms:
     one-electron contribution =      94.31971296 Ry
     hartree contribution      =       0.64637708 Ry
     xc contribution           =     -86.30396774 Ry
     ewald contribution        =    -176.25331446 Ry

     convergence has been achieved in  10 iterations

     Forces acting on atoms (cartesian axes, Ry/au):

     atom    1 type  1   force =    -0.00000000   -0.00000430   -0.00000430
     atom    2 type  2   force =     0.00000000    0.00000000    0.00000000
     atom    3 type  1   force =     0.00000430   -0.00000430    0.00000000
     atom    4 type  1   force =     0.00000430   -0.00000000   -0.00000430
     atom    5 type  1   force =    -0.00000000   -0.00000430    0.00000430
     atom    6 type  1   force =     0.00000000    0.00000000    0.00000000
     atom    7 type  1   force =    -0.00021699    0.00021699    0.00000000
     atom    8 type  1   force =     0.00000430    0.00000000    0.00000430
     atom    9 type  1   force =     0.00000000    0.00000430   -0.00000430
     atom   10 type  1   force =     0.00000000    0.00000000    0.00000000
     atom   11 type  1   force =     0.00000430    0.00000430   -0.00000000
     atom   12 type  1   force =    -0.00021699   -0.00000000    0.00021699
     atom   13 type  1   force =    -0.00000000    0.00000430    0.00000430
     atom   14 type  1   force =     0.00000000    0.00000000    0.00000000
     atom   15 type  1   force =    -0.00021699   -0.00021699   -0.00000000
     atom   16 type  1   force =    -0.00021699   -0.00000000   -0.00021699
     atom   17 type  1   force =     0.00000000    0.00021699    0.00021699
     atom   18 type  1   force =     0.00000000    0.00000000    0.00000000
     atom   19 type  1   force =    -0.00000430   -0.00000430    0.00000000
     atom   20 type  1   force =    -0.00000430   -0.00000000   -0.00000430
     atom   21 type  1   force =    -0.00000000    0.00021699   -0.00021699
     atom   22 type  1   force =     0.00000000    0.00000000    0.00000000
     atom   23 type  1   force =     0.00021699    0.00021699   -0.00000000
     atom   24 type  1   force =    -0.00000430   -0.00000000    0.00000430
     atom   25 type  1   force =     0.00000000   -0.00021699    0.00021699
     atom   26 type  1   force =     0.00000000    0.00000000    0.00000000
     atom   27 type  1   force =    -0.00000430    0.00000430    0.00000000
     atom   28 type  1   force =     0.00021699    0.00000000    0.00021699
     atom   29 type  1   force =     0.00000000   -0.00021699   -0.00021699
     atom   30 type  1   force =     0.00000000    0.00000000    0.00000000
     atom   31 type  1   force =     0.00021699   -0.00021699   -0.00000000
     atom   32 type  1   force =     0.00021699    0.00000000   -0.00021699

     Total force =     0.001063     Total SCF correction =     0.000002


     Computing stress (Cartesian axis) and pressure

          total   stress  (Ry/bohr**3)                   (kbar)     P=      -10.01
  -0.00006806   0.00000000   0.00000000          -10.01        0.00        0.00
   0.00000000  -0.00006806   0.00000000            0.00      -10.01        0.00
   0.00000000   0.00000000  -0.00006806            0.00        0.00      -10.01

     Energy error            =      2.5E-05
     Gradient error          =      2.2E-04

     bfgs converged in   6 scf cycles and   5 bfgs steps
     (criteria: energy <  1.0E-04 Ry, force <  1.0E-03 Ry/Bohr)

     End of BFGS Geometry Optimization

     Final energy   =    -167.5909363235 Ry

     File qe_tmp/Al31Si.bfgs deleted, as requested
Begin final coordinates

ATOMIC_POSITIONS (angstrom)
Al            0.0000000000        0.0092094868        0.0092094868
Si            0.0000000000        2.0250000000        2.0250000000
Al            2.0157905132        0.0092094868        2.0250000000
Al            2.0157905132        2.0250000000        0.0092094868
Al           -0.0000000000        0.0092094868        4.0407905132
Al            0.0000000000        2.0250000000        6.0750000000
Al            2.0250374609       -0.0000374609        6.0750000000
Al            2.0157905132        2.0250000000        4.0407905132
Al            0.0000000000        4.0407905132        0.0092094868
Al            0.0000000000        6.0750000000        2.0250000000
Al            2.0157905132        4.0407905132        2.0250000000
Al            2.0250374609        6.0750000000       -0.0000374609
Al            0.0000000000        4.0407905132        4.0407905132
Al            0.0000000000        6.0750000000        6.0750000000
Al            2.0250374609        4.0500374609        6.0750000000
Al            2.0250374609        6.0750000000        4.0500374609
Al            4.0500000000       -0.0000374609       -0.0000374609
Al            4.0500000000        2.0250000000        2.0250000000
Al            6.0842094868        0.0092094868        2.0250000000
Al            6.0842094868        2.0250000000        0.0092094868
Al            4.0500000000       -0.0000374609        4.0500374609
Al            4.0500000000        2.0250000000        6.0750000000
Al            6.0749625391       -0.0000374609        6.0750000000
Al            6.0842094868        2.0250000000        4.0407905132
Al            4.0500000000        4.0500374609       -0.0000374609
Al            4.0500000000        6.0750000000        2.0250000000
Al            6.0842094868        4.0407905132        2.0250000000
Al            6.0749625391        6.0750000000       -0.0000374609
Al            4.0500000000        4.0500374609        4.0500374609
Al            4.0500000000        6.0750000000        6.0750000000
Al            6.0749625391        4.0500374609        6.0750000000
Al            6.0749625391        6.0750000000        4.0500374609
End final coordinates



     Writing output data file qe_tmp/Al31Si.save/

     init_run     :    375.14s CPU    377.74s WALL (       1 calls)
     electrons    :  44995.91s CPU  45401.03s WALL (       6 calls)
     update_pot   :      6.85s CPU      7.38s WALL (       5 calls)
     forces       :    860.72s CPU    880.87s WALL (       6 calls)
     stress       :   1329.83s CPU   1372.32s WALL (       6 calls)

     Called by init_run:
     wfcinit      :    369.22s CPU    370.84s WALL (       1 calls)
     potinit      :      1.02s CPU      1.02s WALL (       1 calls)
     hinit0       :      1.15s CPU      1.15s WALL (       1 calls)

     Called by electrons:
     c_bands      :  41051.16s CPU  41194.07s WALL (      61 calls)
     sum_band     :   3628.71s CPU   3766.32s WALL (      61 calls)
     v_of_rho     :     65.84s CPU     71.40s WALL (      61 calls)
     newd         :    238.50s CPU    361.47s WALL (      61 calls)
     mix_rho      :     20.72s CPU     21.01s WALL (      61 calls)

     Called by c_bands:
     init_us_2    :    200.46s CPU    200.84s WALL (    4725 calls)
     cegterg      :  40021.77s CPU  40149.14s WALL (    2135 calls)

     Called by *egterg:
     cdiaghg      :    152.39s CPU    152.78s WALL (   12766 calls)
     h_psi        :  21101.44s CPU  21162.93s WALL (   13186 calls)
     s_psi        :   6682.15s CPU   6684.20s WALL (   13186 calls)
     g_psi        :    192.92s CPU    193.02s WALL (   11016 calls)

     Called by h_psi:
     h_psi:calbec :   6266.51s CPU   6269.40s WALL (   13186 calls)
     vloc_psi     :   8098.82s CPU   8120.14s WALL (   13186 calls)
     add_vuspsi   :   6692.29s CPU   6694.72s WALL (   13186 calls)

     General routines
     calbec       :   9071.58s CPU   9075.28s WALL (   16371 calls)
     fft          :     25.61s CPU     25.73s WALL (     942 calls)
     ffts         :      1.03s CPU      1.03s WALL (     122 calls)
     fftw         :   8310.45s CPU   8333.38s WALL (  965207 calls)
     interpolate  :      3.09s CPU      3.10s WALL (      61 calls)

     Parallel routines

     PWSCF        :     13h13m CPU     13h21m WALL


   This run was terminated on:  15:47:55  15Jul2026            

=------------------------------------------------------------------------------=
   JOB DONE.
=------------------------------------------------------------------------------=
