
     Program PWSCF v.6.7MaX starts on 19Jul2026 at 18:47:34 

     This program is part of the open-source Quantum ESPRESSO suite
     for quantum simulation of materials; please cite
         "P. Giannozzi et al., J. Phys.:Condens. Matter 21 395502 (2009);
         "P. Giannozzi et al., J. Phys.:Condens. Matter 29 465901 (2017);
          URL http://www.quantum-espresso.org", 
     in publications or presentations arising from this work. More details at
     http://www.quantum-espresso.org/quote

     Parallel version (MPI), running on     1 processors

     MPI processes distributed on     1 nodes
     Waiting for input...
     Reading input from standard input
Warning: card &CELL ignored
Warning: card    PRESS_CONV_THR   = 0.5 ignored
Warning: card / ignored
Warning: card &FCP ignored
Warning: card / ignored
Warning: card &RISM ignored
Warning: card / ignored

     Current dimensions of program PWSCF are:
     Max number of different atomic species (ntypx) = 10
     Max number of k-points (npk) =  40000
     Max angular momentum in pseudopotentials (lmaxx) =  3
     Message from routine read_pp_mesh:
     mesh size missing, using the one in header

     IMPORTANT: XC functional enforced from input :
     Exchange-correlation= PBE
                           (   1   4   3   4   0   0   0)
     Any further DFT definition will be discarded
     Please, verify this is what you really want


     Subspace diagonalization in iterative solution of the eigenvalue problem:
     a serial algorithm will be used

     Message from routine setup:
     using ibrav=0 with symmetry is DISCOURAGED, use correct ibrav instead

     G-vector sticks info
     --------------------
     sticks:   dense  smooth     PW     G-vecs:    dense   smooth      PW
     Sum        7441    3729   1033               484425   171189   24837



     bravais-lattice index     =            0
     lattice parameter (alat)  =      15.3068  a.u.
     unit-cell volume          =    3586.3416 (a.u.)^3
     number of atoms/cell      =           32
     number of atomic types    =            3
     number of electrons       =       104.00
     number of Kohn-Sham states=           62
     kinetic-energy cutoff     =      50.0000  Ry
     charge density cutoff     =     400.0000  Ry
     scf convergence threshold =      1.0E-08
     mixing beta               =       0.7000
     number of iterations used =            8  plain     mixing
     energy convergence thresh.=      1.0E-04
     force convergence thresh. =      1.0E-03
     Exchange-correlation= PBE
                           (   1   4   3   4   0   0   0)
     nstep                     =           50


     celldm(1)=  15.306782  celldm(2)=   0.000000  celldm(3)=   0.000000
     celldm(4)=   0.000000  celldm(5)=   0.000000  celldm(6)=   0.000000

     crystal axes: (cart. coord. in units of alat)
               a(1) = (   1.000000   0.000000   0.000000 )  
               a(2) = (   0.000000   1.000000   0.000000 )  
               a(3) = (   0.000000   0.000000   1.000000 )  

     reciprocal axes: (cart. coord. in units 2 pi/alat)
               b(1) = (  1.000000  0.000000  0.000000 )  
               b(2) = (  0.000000  1.000000  0.000000 )  
               b(3) = (  0.000000  0.000000  1.000000 )  


     PseudoPot. # 1 for Mg read from file:
     ../../../pseudos/Mg.us.pbe.z_10.uspp.gbrv.v1.4.upf
     MD5 check sum: 6ff864fbc24a44e5dee236984f6edeb4
     Pseudo is Ultrasoft, Zval = 10.0
     
     Using radial grid of  821 points,  7 beta functions with: 
                l(1) =   0
                l(2) =   0
                l(3) =   0
                l(4) =   1
                l(5) =   1
                l(6) =   2
                l(7) =   2
     Q(r) pseudized with 0 coefficients 


     PseudoPot. # 2 for Al read from file:
     ../../../pseudos/Al.us.pbe.z_3.ld1.psl.v1.0.0-low.upf
     MD5 check sum: ce85e4ab7f99e505e5d81ad4c7630c6b
     Pseudo is Ultrasoft + core correction, Zval =  3.0
     Generated using &quot;atomic&quot; code by A. Dal Corso  v.6.3MaX
     Using radial grid of 1135 points,  4 beta functions with: 
                l(1) =   0
                l(2) =   0
                l(3) =   1
                l(4) =   1
     Q(r) pseudized with 0 coefficients 


     PseudoPot. # 3 for Si read from file:
     ../../../pseudos/Si.us.pbe.z_4.ld1.psl.v1.0.0-high.upf
     MD5 check sum: 8e298c2a3df40404922b81d9358831a3
     Pseudo is Ultrasoft + core correction, Zval =  4.0
     Generated using &quot;atomic&quot; code by A. Dal Corso  v.6.3MaX
     Using radial grid of 1141 points,  6 beta functions with: 
                l(1) =   0
                l(2) =   0
                l(3) =   1
                l(4) =   1
                l(5) =   2
                l(6) =   2
     Q(r) pseudized with 0 coefficients 


     atomic species   valence    mass     pseudopotential
        Mg            10.00    24.30500     Mg( 1.00)
        Al             3.00    26.98154     Al( 1.00)
        Si             4.00    28.08500     Si( 1.00)

     48 Sym. Ops., with inversion, found



   Cartesian axes

     site n.     atom                  positions (alat units)
         1           Mg  tau(   1) = (   0.0000000   0.0000000   0.0000000  )
         2           Al  tau(   2) = (   0.0000000   0.2500000   0.2500000  )
         3           Al  tau(   3) = (   0.2500000   0.0000000   0.2500000  )
         4           Al  tau(   4) = (   0.2500000   0.2500000   0.0000000  )
         5           Al  tau(   5) = (   0.0000000   0.0000000   0.5000000  )
         6           Al  tau(   6) = (   0.0000000   0.2500000   0.7500000  )
         7           Al  tau(   7) = (   0.2500000   0.0000000   0.7500000  )
         8           Al  tau(   8) = (   0.2500000   0.2500000   0.5000000  )
         9           Al  tau(   9) = (   0.0000000   0.5000000   0.0000000  )
        10           Al  tau(  10) = (   0.0000000   0.7500000   0.2500000  )
        11           Al  tau(  11) = (   0.2500000   0.5000000   0.2500000  )
        12           Al  tau(  12) = (   0.2500000   0.7500000   0.0000000  )
        13           Al  tau(  13) = (   0.0000000   0.5000000   0.5000000  )
        14           Al  tau(  14) = (   0.0000000   0.7500000   0.7500000  )
        15           Al  tau(  15) = (   0.2500000   0.5000000   0.7500000  )
        16           Al  tau(  16) = (   0.2500000   0.7500000   0.5000000  )
        17           Al  tau(  17) = (   0.5000000   0.0000000   0.0000000  )
        18           Al  tau(  18) = (   0.5000000   0.2500000   0.2500000  )
        19           Al  tau(  19) = (   0.7500000   0.0000000   0.2500000  )
        20           Al  tau(  20) = (   0.7500000   0.2500000   0.0000000  )
        21           Al  tau(  21) = (   0.5000000   0.0000000   0.5000000  )
        22           Al  tau(  22) = (   0.5000000   0.2500000   0.7500000  )
        23           Al  tau(  23) = (   0.7500000   0.0000000   0.7500000  )
        24           Al  tau(  24) = (   0.7500000   0.2500000   0.5000000  )
        25           Al  tau(  25) = (   0.5000000   0.5000000   0.0000000  )
        26           Al  tau(  26) = (   0.5000000   0.7500000   0.2500000  )
        27           Al  tau(  27) = (   0.7500000   0.5000000   0.2500000  )
        28           Al  tau(  28) = (   0.7500000   0.7500000   0.0000000  )
        29           Si  tau(  29) = (   0.5000000   0.5000000   0.5000000  )
        30           Al  tau(  30) = (   0.5000000   0.7500000   0.7500000  )
        31           Al  tau(  31) = (   0.7500000   0.5000000   0.7500000  )
        32           Al  tau(  32) = (   0.7500000   0.7500000   0.5000000  )

     number of k points=    35  Marzari-Vanderbilt smearing, width (Ry)=  0.0200
                       cart. coord. in units 2pi/alat
        k(    1) = (   0.0000000   0.0000000   0.0000000), wk =   0.0039062
        k(    2) = (   0.0000000   0.0000000   0.1250000), wk =   0.0234375
        k(    3) = (   0.0000000   0.0000000   0.2500000), wk =   0.0234375
        k(    4) = (   0.0000000   0.0000000   0.3750000), wk =   0.0234375
        k(    5) = (   0.0000000   0.0000000  -0.5000000), wk =   0.0117188
        k(    6) = (   0.0000000   0.1250000   0.1250000), wk =   0.0468750
        k(    7) = (   0.0000000   0.1250000   0.2500000), wk =   0.0937500
        k(    8) = (   0.0000000   0.1250000   0.3750000), wk =   0.0937500
        k(    9) = (   0.0000000   0.1250000  -0.5000000), wk =   0.0468750
        k(   10) = (   0.0000000   0.2500000   0.2500000), wk =   0.0468750
        k(   11) = (   0.0000000   0.2500000   0.3750000), wk =   0.0937500
        k(   12) = (   0.0000000   0.2500000  -0.5000000), wk =   0.0468750
        k(   13) = (   0.0000000   0.3750000   0.3750000), wk =   0.0468750
        k(   14) = (   0.0000000   0.3750000  -0.5000000), wk =   0.0468750
        k(   15) = (   0.0000000  -0.5000000  -0.5000000), wk =   0.0117188
        k(   16) = (   0.1250000   0.1250000   0.1250000), wk =   0.0312500
        k(   17) = (   0.1250000   0.1250000   0.2500000), wk =   0.0937500
        k(   18) = (   0.1250000   0.1250000   0.3750000), wk =   0.0937500
        k(   19) = (   0.1250000   0.1250000  -0.5000000), wk =   0.0468750
        k(   20) = (   0.1250000   0.2500000   0.2500000), wk =   0.0937500
        k(   21) = (   0.1250000   0.2500000   0.3750000), wk =   0.1875000
        k(   22) = (   0.1250000   0.2500000  -0.5000000), wk =   0.0937500
        k(   23) = (   0.1250000   0.3750000   0.3750000), wk =   0.0937500
        k(   24) = (   0.1250000   0.3750000  -0.5000000), wk =   0.0937500
        k(   25) = (   0.1250000  -0.5000000  -0.5000000), wk =   0.0234375
        k(   26) = (   0.2500000   0.2500000   0.2500000), wk =   0.0312500
        k(   27) = (   0.2500000   0.2500000   0.3750000), wk =   0.0937500
        k(   28) = (   0.2500000   0.2500000  -0.5000000), wk =   0.0468750
        k(   29) = (   0.2500000   0.3750000   0.3750000), wk =   0.0937500
        k(   30) = (   0.2500000   0.3750000  -0.5000000), wk =   0.0937500
        k(   31) = (   0.2500000  -0.5000000  -0.5000000), wk =   0.0234375
        k(   32) = (   0.3750000   0.3750000   0.3750000), wk =   0.0312500
        k(   33) = (   0.3750000   0.3750000  -0.5000000), wk =   0.0468750
        k(   34) = (   0.3750000  -0.5000000  -0.5000000), wk =   0.0234375
        k(   35) = (  -0.5000000  -0.5000000  -0.5000000), wk =   0.0039062

     Dense  grid:   484425 G-vectors     FFT dimensions: ( 100, 100, 100)

     Smooth grid:   171189 G-vectors     FFT dimensions: (  72,  72,  72)

     Estimated max dynamical RAM per process >       3.22 GB

     Initial potential from superposition of free atoms

     starting charge  103.63050, renormalised to  104.00000
     Starting wfcs are  129 randomized atomic wfcs

     total cpu time spent up to now is      413.6 secs

     Self-consistent Calculation

     iteration #  1     ecut=    50.00 Ry     beta= 0.70
     Davidson diagonalization with overlap
     ethr =  1.00E-02,  avg # of iterations =  3.5

     Threshold (ethr) on eigenvalues was too large:
     Diagonalizing with lowered threshold

     Davidson diagonalization with overlap
     ethr =  3.10E-04,  avg # of iterations =  5.7

     total cpu time spent up to now is     1820.1 secs

     total energy              =    -287.73332806 Ry
     estimated scf accuracy    <       0.35791072 Ry

     iteration #  2     ecut=    50.00 Ry     beta= 0.70
     Davidson diagonalization with overlap
     ethr =  3.44E-04,  avg # of iterations =  6.4

     total cpu time spent up to now is     2621.0 secs

     total energy              =    -287.46747277 Ry
     estimated scf accuracy    <       2.92264212 Ry

     iteration #  3     ecut=    50.00 Ry     beta= 0.70
     Davidson diagonalization with overlap
     ethr =  3.44E-04,  avg # of iterations =  5.3

     total cpu time spent up to now is     3392.3 secs

     total energy              =    -287.86086734 Ry
     estimated scf accuracy    <       0.03052853 Ry

     iteration #  4     ecut=    50.00 Ry     beta= 0.70
     Davidson diagonalization with overlap
     c_bands:  1 eigenvalues not converged
     ethr =  2.94E-05,  avg # of iterations =  7.2

     total cpu time spent up to now is     4189.1 secs

     total energy              =    -287.86594910 Ry
     estimated scf accuracy    <       0.03121584 Ry

     iteration #  5     ecut=    50.00 Ry     beta= 0.70
     Davidson diagonalization with overlap
     ethr =  2.94E-05,  avg # of iterations =  2.1

     total cpu time spent up to now is     4729.0 secs

     total energy              =    -287.86774326 Ry
     estimated scf accuracy    <       0.00783129 Ry

     iteration #  6     ecut=    50.00 Ry     beta= 0.70
     Davidson diagonalization with overlap
     c_bands:  1 eigenvalues not converged
     ethr =  7.53E-06,  avg # of iterations =  4.4

     total cpu time spent up to now is     5280.6 secs

     total energy              =    -287.86829030 Ry
     estimated scf accuracy    <       0.00099092 Ry

     iteration #  7     ecut=    50.00 Ry     beta= 0.70
     Davidson diagonalization with overlap
     c_bands:  1 eigenvalues not converged
     c_bands:  1 eigenvalues not converged
     c_bands:  1 eigenvalues not converged
     c_bands:  1 eigenvalues not converged
     ethr =  9.53E-07,  avg # of iterations =  8.5

     total cpu time spent up to now is     6098.5 secs

     total energy              =    -287.86869570 Ry
     estimated scf accuracy    <       0.00020130 Ry

     iteration #  8     ecut=    50.00 Ry     beta= 0.70
     Davidson diagonalization with overlap
     c_bands:  1 eigenvalues not converged
     c_bands:  1 eigenvalues not converged
     c_bands:  1 eigenvalues not converged
     ethr =  1.94E-07,  avg # of iterations =  4.6

     total cpu time spent up to now is     6646.0 secs

     total energy              =    -287.86869370 Ry
     estimated scf accuracy    <       0.00008068 Ry

     iteration #  9     ecut=    50.00 Ry     beta= 0.70
     Davidson diagonalization with overlap
     ethr =  7.76E-08,  avg # of iterations =  3.5

     total cpu time spent up to now is     7213.4 secs

     total energy              =    -287.86870771 Ry
     estimated scf accuracy    <       0.00000061 Ry

     iteration # 10     ecut=    50.00 Ry     beta= 0.70
     Davidson diagonalization with overlap
     c_bands:  1 eigenvalues not converged
     c_bands:  2 eigenvalues not converged
     ethr =  5.85E-10,  avg # of iterations = 11.6

     total cpu time spent up to now is     8472.3 secs

     total energy              =    -287.86870966 Ry
     estimated scf accuracy    <       0.00000219 Ry

     iteration # 11     ecut=    50.00 Ry     beta= 0.70
     Davidson diagonalization with overlap
     ethr =  5.85E-10,  avg # of iterations =  3.7

     total cpu time spent up to now is     9169.3 secs

     total energy              =    -287.86870992 Ry
     estimated scf accuracy    <       0.00000001 Ry

     iteration # 12     ecut=    50.00 Ry     beta= 0.70
     Davidson diagonalization with overlap
     c_bands:  1 eigenvalues not converged
     ethr =  9.68E-12,  avg # of iterations =  8.3

     total cpu time spent up to now is    10105.0 secs

     End of self-consistent calculation

          k = 0.0000 0.0000 0.0000 ( 21367 PWs)   bands (ev):

   -67.7788 -34.5601 -34.5601 -34.5601  -3.2946  -1.4098  -0.9689  -0.9689
    -0.9632  -0.9632  -0.9632   1.1052   1.2357   1.2357   1.2365   1.2365
     1.2365   1.2386   1.2386   1.2386   1.2458   1.2458   1.2458   3.3160
     3.3160   3.3160   3.3215   3.5275   3.5275   3.5275   3.6534   4.9538
     4.9538   4.9538   6.1463   6.3037   6.3037   6.9476   6.9476   6.9476
     7.0459   7.0459   7.0459   7.0487   7.0487   7.0487   7.0692   7.0692
     7.0692   8.0098   8.0098   8.0098   8.0671   8.1004   8.1004   8.4274
     8.9593   8.9593   8.9638   8.9638   8.9638   9.1317

          k = 0.0000 0.0000 0.1250 ( 21419 PWs)   bands (ev):

   -67.7788 -34.5601 -34.5601 -34.5601  -3.2616  -1.6125  -1.2097  -0.9342
    -0.9287  -0.9287  -0.4368   0.7224   0.7246   0.7295   0.7295   1.2160
     1.2711   1.2711   1.2800   1.7372   1.8159   1.8188   1.8188   2.9073
     2.9095   2.9095   2.9878   3.9988   3.9988   4.0071   4.0543   4.3956
     4.9860   4.9860   6.1586   6.3377   6.4921   6.4969   6.5025   6.5025
     6.5470   6.5470   6.8805   7.0239   7.0239   7.0811   7.1015   7.5691
     7.5691   7.7391   7.8648   8.2674   8.2816   8.2816   8.3694   8.6188
     8.6231   8.6232   8.6396   8.6631   8.7656   8.7988

          k = 0.0000 0.0000 0.2500 ( 21418 PWs)   bands (ev):

   -67.7788 -34.5601 -34.5601 -34.5601  -3.1642  -2.0100  -1.1783  -0.8301
    -0.8254  -0.8254   0.1048   0.2757   0.2843   0.2843   0.4205   1.3011
     1.3711   1.3711   1.3825   2.2317   2.4102   2.4102   2.4604   2.4710
     2.5297   2.5297   2.7110   3.5107   4.6162   4.6162   4.6394   4.6612
     5.0837   5.0837   5.5171   5.6285   5.6407   5.6407   6.1352   6.1352
     6.3918   6.4398   7.0965   7.0965   7.1784   7.1982   7.2849   7.4926
     7.7698   7.7822   7.7822   7.9078   7.9532   8.0743   8.0743   8.2173
     8.2400   8.3580   8.3580   8.5659   8.5934   8.6245

          k = 0.0000 0.0000 0.3750 ( 21446 PWs)   bands (ev):

   -67.7788 -34.5601 -34.5601 -34.5601  -3.0132  -2.3575  -1.1052  -0.6568
    -0.6548  -0.6548  -0.1034  -0.0918  -0.0918   0.0146   0.8953   1.4376
     1.5337   1.5337   1.5531   2.0984   2.1075   2.1075   2.1540   2.6671
     3.1542   3.1682   3.1747   3.1747   4.6814   4.7544   4.7544   4.7607
     5.1691   5.1691   5.3211   5.3377   5.3900   5.3900   5.7967   5.7967
     6.4966   6.6085   6.7807   6.8890   6.8890   6.9118   7.1430   7.2606
     7.2606   7.3407   7.3595   7.3715   7.8601   7.8844   7.9280   7.9280
     8.5242   8.7813   8.7813   8.7925   8.8928   8.8928

          k = 0.0000 0.0000-0.5000 ( 21426 PWs)   bands (ev):

   -67.7788 -34.5601 -34.5601 -34.5601  -2.8952  -2.5422  -1.0664  -0.4612
    -0.4612  -0.4203  -0.4086  -0.3539  -0.3539  -0.0826   1.2835   1.6926
     1.6926   1.7035   1.7805   1.8036   1.8520   1.8826   1.8826   2.2042
     3.7890   3.9052   3.9052   3.9363   3.9369   3.9724   3.9742   3.9742
     5.3235   5.3235   5.6060   5.6060   5.9092   6.0592   6.0592   6.0942
     6.1000   6.1288   6.1484   6.1484   6.7005   6.8174   6.8721   7.1174
     7.3176   7.3176   7.5501   7.5622   7.5736   7.6286   7.8007   7.8007
     8.5807   8.9440   8.9440   9.0106   9.1081   9.1081

          k = 0.0000 0.1250 0.1250 ( 21407 PWs)   bands (ev):

   -67.7788 -34.5601 -34.5601 -34.5601  -3.2286  -1.6443  -1.4521  -1.0529
    -0.8942  -0.4813  -0.3441   0.2310   0.7565   0.7592   0.7618   0.7654
     1.2770   1.3055   1.7523   1.8478   1.8482   1.8549   2.3585   2.4095
     2.4929   3.3772   3.3844   3.5964   3.6570   4.4155   4.4325   4.5616
     4.5852   5.0209   5.9615   6.0084   6.2973   6.4179   6.4509   6.5598
     6.5862   6.5969   6.6373   6.8697   6.9149   7.0434   7.0465   7.5479
     7.6365   7.8045   7.9773   8.1094   8.1278   8.1346   8.2147   8.3354
     8.3775   8.4347   8.7479   8.7746   8.9307   9.1760

          k = 0.0000 0.1250 0.2500 ( 21406 PWs)   bands (ev):

   -67.7788 -34.5601 -34.5601 -34.5601  -3.1314  -1.9807  -1.4484  -0.9816
    -0.7910  -0.3584  -0.1868   0.1785   0.3185   0.3970   0.8641   0.8655
     0.8666   1.7672   1.9168   1.9459   2.0001   2.1171   2.4663   2.4989
     2.9390   3.0444   3.1384   3.5546   4.1369   4.1416   4.5428   5.0618
     5.1276   5.1942   5.2397   5.5609   5.6211   5.6688   6.1434   6.1649
     6.4200   6.6086   6.6560   6.6683   7.0140   7.2456   7.2803   7.4574
     7.5966   7.6120   7.7064   7.8373   7.9097   7.9642   8.0299   8.1919
     8.2272   8.3468   8.4321   8.7935   8.9920   9.0934

          k = 0.0000 0.1250 0.3750 ( 21434 PWs)   bands (ev):

   -67.7788 -34.5601 -34.5601 -34.5601  -2.9810  -2.3245  -1.3292  -0.8796
    -0.6203  -0.5335  -0.2169  -0.0575   0.0572   0.4863   0.8329   1.0339
     1.1289   1.5881   1.6086   2.0786   2.1266   2.5296   2.6590   2.6732
     2.8328   3.2009   3.2092   3.7251   4.2364   4.5905   4.7618   4.7805
     4.8326   4.9346   5.2274   5.2592   5.3021   5.8251   5.8614   5.9064
     6.3804   6.4139   6.6063   6.7781   6.8092   6.8266   7.0526   7.2502
     7.3466   7.3994   7.4156   7.4711   7.4736   7.8441   7.8898   8.2716
     8.3988   8.4277   8.8964   8.9416   9.0813   9.3053

          k = 0.0000 0.1250-0.5000 ( 21398 PWs)   bands (ev):

   -67.7788 -34.5601 -34.5601 -34.5601  -2.8638  -2.5078  -1.2492  -0.8384
    -0.6525  -0.4268  -0.3195  -0.2199   0.0451   0.3093   1.0034   1.2243
     1.3313   1.4491   1.7386   1.8348   2.1936   2.3137   2.4204   2.6048
     3.3820   3.4696   3.8903   3.9378   3.9844   4.0075   4.4479   4.5184
     4.7590   5.0350   5.3393   5.5716   5.5750   5.5985   5.6915   5.7022
     6.4418   6.6274   6.6462   6.6809   6.7557   6.8921   6.9303   7.0206
     7.0418   7.0633   7.2395   7.3017   7.3544   7.6103   7.9968   8.2576
     8.3704   8.7045   9.0704   9.2210   9.2408   9.4828

          k = 0.0000 0.2500 0.2500 ( 21408 PWs)   bands (ev):

   -67.7788 -34.5601 -34.5601 -34.5601  -3.0350  -1.9441  -1.8004  -0.9686
    -0.6878  -0.5927   0.0774   0.3806   0.4183   0.4234   0.4480   0.6113
     1.3613   1.5091   1.5193   1.6943   2.5177   2.5887   2.5979   2.6009
     3.4711   3.4872   3.5818   3.6382   3.7318   3.8025   4.0311   4.6985
     4.7096   5.1726   5.6358   5.6615   5.7250   5.8221   5.8422   5.9061
     6.2311   6.2744   6.5748   6.6680   6.7378   6.8437   6.8733   6.9225
     6.9553   7.3263   7.6922   7.7274   8.1250   8.1382   8.2997   8.3507
     8.7768   8.8151   8.9329   8.9555   8.9575   9.1256

          k = 0.0000 0.2500 0.3750 ( 21434 PWs)   bands (ev):

   -67.7788 -34.5601 -34.5601 -34.5601  -2.8865  -2.2280  -1.7162  -1.1195
    -0.6710  -0.5173   0.0001   0.0451   0.4124   0.5900   0.6466   1.0380
     1.1314   1.1478   1.3091   2.2307   2.6230   2.7563   2.7651   3.2071
     3.2635   3.3524   3.4369   3.6944   3.8736   4.2796   4.3560   4.4037
     4.5727   4.8408   4.8779   5.3462   5.7357   5.8804   5.9049   5.9605
     6.0231   6.1385   6.3837   6.4277   6.5168   6.5368   6.5733   6.7999
     7.0020   7.1388   7.6523   7.8259   8.0898   8.1116   8.2726   8.4813
     8.4895   8.8419   8.9311   9.1148   9.1432   9.2747

          k = 0.0000 0.2500-0.5000 ( 21376 PWs)   bands (ev):

   -67.7788 -34.5601 -34.5601 -34.5601  -2.7727  -2.4054  -1.6049  -1.2760
    -0.6205  -0.3238  -0.2168  -0.1184   0.5017   0.7736   0.7814   0.8814
     0.8886   1.1026   1.8388   1.9241   2.7728   2.9504   2.9686   3.0159
     3.0593   3.2338   3.8309   4.0348   4.0389   4.0676   4.1071   4.1569
     4.9855   5.0763   5.1248   5.1830   5.2407   5.3536   5.4741   5.7426
     5.9385   6.1494   6.2244   6.4380   6.5403   6.7577   6.8084   6.9942
     7.2674   7.2690   7.3158   7.4055   7.9189   8.2244   8.2727   8.4011
     8.4631   8.5972   8.6730   8.8627   9.6703   9.9227

          k = 0.0000 0.3750 0.3750 ( 21364 PWs)   bands (ev):

   -67.7788 -34.5601 -34.5601 -34.5601  -2.7429  -2.1147  -2.0099  -1.4504
    -0.5847  -0.3469   0.1232   0.2084   0.2119   0.2175   0.7744   0.8446
     1.2175   1.2995   1.8481   1.9142   2.7897   2.8978   3.3137   3.4312
     3.4531   3.4747   3.4881   3.5152   3.9161   3.9350   4.1438   4.2616
     4.9200   4.9340   4.9723   5.0890   5.2096   5.4919   5.6171   5.6182
     5.6246   5.8401   6.0801   6.0917   6.5791   6.6022   6.6558   6.7799
     7.2293   7.2726   7.4616   7.5437   8.1380   8.3215   8.7404   8.7506
     8.7894   8.8284   9.1101   9.1959   9.3896   9.7287

          k = 0.0000 0.3750-0.5000 ( 21380 PWs)   bands (ev):

   -67.7788 -34.5601 -34.5601 -34.5601  -2.6375  -2.2394  -1.9237  -1.6462
    -0.5151  -0.1534  -0.0472   0.0287   0.2721   0.4065   0.5146   0.6810
     1.3746   1.6627   1.9979   2.0783   2.5919   2.6744   3.0121   3.2877
     3.4702   3.6399   3.7573   3.8754   4.1351   4.1908   4.1933   4.2714
     4.7674   4.7823   4.8232   4.9186   5.1177   5.2779   5.3611   5.6276
     5.6305   5.7901   5.8607   5.8938   6.2018   6.4724   6.9141   7.0308
     7.3408   7.6413   7.6770   7.9334   7.9354   7.9519   7.9994   8.1552
     9.2347   9.4248   9.5142   9.5160   9.5583   9.5716

          k = 0.0000-0.5000-0.5000 ( 21392 PWs)   bands (ev):

   -67.7788 -34.5601 -34.5601 -34.5600  -2.5447  -2.0798  -2.0798  -1.8741
    -0.4458   0.0419   0.1400   0.1400   0.1430   0.1430   0.2562   0.5077
     1.9134   2.2084   2.2084   2.3148   2.3309   2.4146   2.4146   2.6221
     4.0399   4.1886   4.2719   4.2719   4.3519   4.3630   4.3630   4.3726
     4.4930   4.6017   4.6124   4.6255   4.6255   4.7029   4.7029   5.1585
     5.7427   6.0152   6.0152   6.2847   6.5113   6.5143   6.5143   6.5749
     7.1030   7.4803   7.4803   7.8466   8.6144   8.6621   8.6971   8.6971
     8.7319   8.7319   8.7587   8.9389   9.7315  10.1743

          k = 0.1250 0.1250 0.1250 ( 21410 PWs)   bands (ev):

   -67.7788 -34.5601 -34.5601 -34.5601  -3.1957  -1.6617  -1.4174  -1.4174
    -0.5778  -0.3100  -0.3100   0.2462   0.2462   0.3126   1.2374   1.3388
     1.3391   1.3391   1.3431   1.3431   1.9554   2.3307   2.4258   2.4258
     2.9764   2.9764   3.0551   4.0571   4.0571   4.0819   4.4719   4.4719
     4.4721   5.1322   5.9522   6.0291   6.0291   6.0398   6.0452   6.0452
     6.7926   6.9322   6.9322   7.0842   7.0899   7.0899   7.0962   7.1054
     7.1054   7.6531   7.6531   7.7495   8.3580   8.4082   8.4082   8.5527
     8.5598   8.5599   8.6790   8.6938   8.6939   8.8379

          k = 0.1250 0.1250 0.2500 ( 21399 PWs)   bands (ev):

   -67.7788 -34.5601 -34.5601 -34.5601  -3.0987  -1.9520  -1.4737  -1.3132
    -0.5111  -0.2279  -0.1801  -0.0798   0.2230   0.4254   0.8962   0.8967
     1.3287   1.4390   1.5594   1.9650   1.9853   2.4199   2.5409   2.6501
     3.0249   3.0735   3.4672   3.5728   3.8246   4.4700   4.5071   4.7422
     4.7825   5.1515   5.1724   5.5961   5.6190   5.7525   6.0504   6.0798
     6.1902   6.2870   6.8310   7.0130   7.0357   7.1262   7.1428   7.2806
     7.3383   7.6381   7.6658   7.7895   7.8443   8.0255   8.1392   8.1940
     8.3371   8.3617   8.6951   8.7174   8.9315   9.2248

          k = 0.1250 0.1250 0.3750 ( 21424 PWs)   bands (ev):

   -67.7788 -34.5601 -34.5601 -34.5601  -2.9488  -2.2917  -1.3726  -1.1403
    -0.6136  -0.5830  -0.1561  -0.0328   0.4788   0.5204   0.5380   1.0335
     1.0902   1.6013   1.6123   2.1321   2.1737   2.6715   2.6938   2.7011
     2.7083   3.2742   3.7336   3.7737   4.2364   4.2929   4.3517   4.6939
     4.7159   5.2260   5.2722   5.3148   5.3544   5.4087   5.4372   5.9412
     6.2745   6.3113   6.4262   6.8380   6.9184   6.9597   6.9626   7.1918
     7.2323   7.3727   7.4010   7.7230   7.7580   7.9168   7.9182   8.1121
     8.4538   8.4748   8.8192   8.8681   9.2489   9.4509

          k = 0.1250 0.1250-0.5000 ( 21386 PWs)   bands (ev):

   -67.7788 -34.5601 -34.5601 -34.5601  -2.8327  -2.4734  -1.3069  -0.9254
    -0.8663  -0.7146  -0.1105   0.1795   0.2396   0.3977   0.6268   0.8991
     1.5487   1.7600   1.7836   1.9061   1.9501   2.0980   2.8088   3.0756
     3.3837   3.4522   3.4862   3.5211   4.4127   4.5155   4.5380   4.5516
     4.7381   4.8417   5.0124   5.0699   5.1381   5.2587   6.1071   6.1087
     6.2012   6.2152   6.3545   6.4941   6.6116   6.7958   7.0279   7.2081
     7.3752   7.3942   7.5019   7.5191   7.5272   7.6668   7.7670   7.7911
     8.8821   8.9564   9.1171   9.1663   9.1718   9.1909

          k = 0.1250 0.2500 0.2500 ( 21396 PWs)   bands (ev):

   -67.7788 -34.5601 -34.5601 -34.5601  -3.0025  -1.9188  -1.7656  -1.2953
    -0.6782  -0.3095  -0.1002  -0.0297   0.3644   0.4474   0.9054   1.0003
     1.1124   1.5425   1.5521   2.0252   2.0877   2.1621   3.0274   3.1210
     3.2111   3.2609   3.6107   3.6696   3.6914   4.2846   4.3720   4.5921
     4.7423   4.7440   5.2372   5.2617   5.3586   5.6735   5.7137   6.1691
     6.2996   6.3738   6.3878   6.5094   6.7529   6.8183   6.9046   7.1955
     7.4135   7.4331   7.7440   7.8063   8.0599   8.1712   8.2954   8.3199
     8.4553   8.5324   8.8638   8.8739   9.1649   9.2157

          k = 0.1250 0.2500 0.3750 ( 21425 PWs)   bands (ev):

   -67.7788 -34.5601 -34.5601 -34.5601  -2.8547  -2.1956  -1.6887  -1.1958
    -0.9587  -0.5047  -0.0957   0.1154   0.4638   0.6309   0.7238   1.0339
     1.1736   1.2831   1.7372   2.2311   2.2671   2.6549   2.7819   2.9240
     3.3091   3.6643   3.7967   3.8352   3.9117   4.0859   4.3513   4.3944
     4.4233   4.7892   5.0063   5.2954   5.3250   5.4499   5.6287   5.7911
     5.9806   6.0426   6.0861   6.4345   6.4917   6.6328   7.0181   7.0724
     7.3695   7.4449   7.5985   7.9530   7.9975   8.2968   8.3868   8.4356
     8.5390   8.6804   8.9496   9.0680   9.1461   9.1813

          k = 0.1250 0.2500-0.5000 ( 21404 PWs)   bands (ev):

   -67.7788 -34.5601 -34.5601 -34.5601  -2.7420  -2.3711  -1.5846  -1.2460
    -0.9642  -0.6772  -0.0049   0.2625   0.3686   0.4807   0.7200   0.9867
     1.2689   1.5394   1.8711   1.9605   2.3776   2.6342   2.9812   3.0691
     3.4262   3.5212   3.5842   3.7115   3.9111   4.1807   4.5142   4.5867
     4.6722   4.7800   4.9354   5.1244   5.1665   5.2063   5.5225   5.7325
     5.7458   5.8849   6.0121   6.3116   6.6022   6.7433   6.8454   6.8966
     7.3900   7.5987   7.8217   7.9159   8.0649   8.2312   8.3460   8.4358
     8.4416   8.6038   8.6332   8.9275   9.1787   9.3748

          k = 0.1250 0.3750 0.3750 ( 21399 PWs)   bands (ev):

   -67.7788 -34.5601 -34.5601 -34.5601  -2.7121  -2.0843  -1.9750  -1.4247
    -0.9488  -0.3829  -0.3066   0.1670   0.2715   0.7335   0.7929   1.2726
     1.3339   1.3639   1.8813   1.9540   2.7788   2.9206   2.9418   2.9681
     3.4974   3.5140   3.5286   3.5737   3.9663   4.0349   4.4577   4.5588
     4.6103   4.6458   4.9593   5.1116   5.1280   5.1348   5.5196   5.5363
     5.6275   5.6559   6.1263   6.1760   6.2663   6.6616   6.7125   6.7330
     7.4009   7.8107   7.9634   8.1091   8.2839   8.2871   8.3969   8.5922
     8.6660   8.7388   9.2008   9.2514   9.3107   9.3511

          k = 0.1250 0.3750-0.5000 ( 21438 PWs)   bands (ev):

   -67.7788 -34.5601 -34.5601 -34.5601  -2.6082  -2.2050  -1.8920  -1.6135
    -0.8451  -0.5207  -0.2140   0.0717   0.2934   0.5845   0.8985   1.1694
     1.4176   1.6992   2.0310   2.1114   2.6228   2.7063   3.0244   3.0777
     3.3116   3.3335   3.6740   3.7487   4.1009   4.2046   4.2842   4.5307
     4.6235   4.7263   4.7972   5.0482   5.0817   5.3327   5.3455   5.4453
     5.6309   5.7589   5.7764   5.8620   6.0225   6.1189   7.3017   7.3417
     7.4301   7.5407   7.6607   8.0229   8.2244   8.4866   8.4971   8.6374
     8.7236   8.9801   9.0154   9.1009   9.3222   9.4048

          k = 0.1250-0.5000-0.5000 ( 21408 PWs)   bands (ev):

   -67.7788 -34.5601 -34.5601 -34.5601  -2.5170  -2.0449  -2.0449  -1.8415
    -0.7431  -0.3756  -0.3756  -0.1390   0.4014   0.7249   0.7249   0.9679
     1.9484   2.2411   2.2411   2.3487   2.3648   2.4473   2.4473   2.6530
     3.6219   3.8718   3.8718   3.9590   3.9759   4.0716   4.0716   4.2318
     4.6740   4.9755   4.9755   5.0595   5.0740   5.1731   5.1731   5.2028
     5.4553   5.4553   5.4746   5.7302   6.5502   6.5955   6.5955   6.7140
     7.6825   8.0467   8.0467   8.1611   8.2370   8.2370   8.2377   8.4763
     9.1826   9.2489   9.2489   9.2622   9.4129   9.5817

          k = 0.2500 0.2500 0.2500 ( 21428 PWs)   bands (ev):

   -67.7788 -34.5601 -34.5601 -34.5601  -2.9073  -1.8820  -1.6612  -1.6612
    -0.6304  -0.5485  -0.5485   0.3638   0.5502   0.5502   0.5674   1.6406
     1.6406   1.6452   1.6494   1.6494   1.6500   2.7394   2.7394   2.7492
     3.6631   3.7588   3.7588   3.7625   3.8083   3.8083   4.7590   4.8353
     4.8397   4.8397   4.8478   4.8478   4.9081   4.9081   4.9938   5.9184
     5.9184   6.0213   6.8965   6.8965   6.8996   6.9634   6.9718   6.9718
     7.0171   8.0237   8.0326   8.0326   8.0529   8.0529   8.0769   8.1731
     8.2654   8.2654   9.2971   9.2972   9.3101   9.3396

          k = 0.2500 0.2500 0.3750 ( 21397 PWs)   bands (ev):

   -67.7788 -34.5601 -34.5601 -34.5601  -2.7619  -2.1015  -1.6615  -1.4878
    -0.9286  -0.9123  -0.4216   0.1918   0.5435   0.7209   1.1514   1.2718
     1.3637   1.8040   1.8067   2.2405   2.3269   2.4109   2.4873   2.8806
     3.4073   3.7866   3.8920   3.9338   3.9890   4.0417   4.3813   4.4605
     4.4614   4.5308   4.6522   4.9223   4.9986   5.1296   5.5293   5.5665
     5.6332   5.7520   6.0965   6.1089   7.0197   7.0625   7.2218   7.2535
     7.5395   7.5809   7.6722   7.7438   7.7609   8.3414   8.4048   8.7064
     8.7327   8.9014   8.9896   9.2392   9.2532   9.3145

          k = 0.2500 0.2500-0.5000 ( 21422 PWs)   bands (ev):

   -67.7788 -34.5601 -34.5601 -34.5601  -2.6533  -2.2687  -1.5901  -1.2723
    -1.2130  -1.0545  -0.2943   0.0007   0.6220   0.9321   0.9927   1.1515
     1.7533   1.9615   1.9839   2.1071   2.1520   2.2956   3.0397   3.1162
     3.1501   3.1834   3.9057   4.0459   4.0676   4.0912   4.2752   4.2904
     4.3047   4.5283   5.0250   5.1340   5.1416   5.2021   5.2150   5.3300
     5.4429   5.6317   6.3090   6.3551   6.4024   6.4597   7.1890   7.2463
     7.4975   7.5200   8.1593   8.2512   8.3025   8.3380   8.3507   8.5300
     8.6273   8.6678   8.8836   9.0079   9.3953   9.4207

          k = 0.2500 0.3750 0.3750 ( 21425 PWs)   bands (ev):

   -67.7788 -34.5601 -34.5601 -34.5601  -2.6227  -1.9978  -1.8704  -1.4484
    -1.2364  -0.7843  -0.7559  -0.1593   0.7455   1.1875   1.4142   1.4629
     1.5457   1.9055   1.9803   2.1341   2.4661   2.5228   2.9111   2.9730
     3.1517   3.1786   3.6015   3.6186   3.9536   4.1338   4.1781   4.5015
     4.5578   4.5975   4.6346   4.8081   4.8536   5.0968   5.2438   5.2663
     5.4576   6.1879   6.2690   6.3221   6.7089   6.7277   6.8581   6.9644
     7.6672   7.7715   7.9139   7.9205   8.1939   8.3593   8.3710   8.4365
     8.6506   9.1231   9.1587   9.2008   9.2941   9.4645

          k = 0.2500 0.3750-0.5000 ( 21448 PWs)   bands (ev):

   -67.7788 -34.5601 -34.5601 -34.5601  -2.5241  -2.1024  -1.8023  -1.5186
    -1.2365  -0.9620  -0.6370  -0.3598   0.8528   1.2218   1.4438   1.6228
     1.7307   1.8625   2.1296   2.2123   2.6350   2.7293   2.7858   2.9199
     3.1125   3.2746   3.3240   3.4058   3.8320   3.8862   4.1562   4.3018
     4.4091   4.5314   4.7528   4.7812   5.0515   5.0753   5.3803   5.4944
     5.8751   5.9461   6.0309   6.1490   6.3756   6.6732   7.0138   7.1115
     7.4704   7.5557   7.8863   8.1774   8.4269   8.5235   8.5733   8.6680
     8.7006   8.9695   9.0665   9.1202   9.1586   9.2157

          k = 0.2500-0.5000-0.5000 ( 21452 PWs)   bands (ev):

   -67.7788 -34.5601 -34.5601 -34.5601  -2.4390  -1.9403  -1.9403  -1.7459
    -1.1275  -0.8251  -0.8251  -0.5678   0.9649   1.3733   1.3733   1.5909
     2.0580   2.3381   2.3381   2.4503   2.4664   2.5441   2.5441   2.7429
     3.2137   3.4489   3.4489   3.5284   3.5448   3.6530   3.6530   3.8402
     4.3478   4.5742   4.5742   4.8884   5.2875   5.5912   5.5912   5.6845
     5.6995   5.7928   5.7928   6.0532   6.6489   6.7033   6.7033   6.8472
     7.6966   7.8124   7.8124   7.8979   8.4328   8.7071   8.7071   8.7547
     8.7866   8.8022   8.8926   8.8927   9.1003   9.1744

          k = 0.3750 0.3750 0.3750 ( 21434 PWs)   bands (ev):

   -67.7788 -34.5601 -34.5601 -34.5601  -2.4923  -1.8964  -1.6967  -1.6967
    -1.1367  -1.1367  -1.1076  -0.5171   1.2046   1.6033   1.6033   2.1345
     2.1345   2.1453   2.1536   2.1578   2.1578   2.7094   2.7094   2.7715
     3.1085   3.2137   3.2137   3.7160   3.7594   3.7638   3.7638   3.7889
     3.7889   4.2994   4.2994   4.5561   5.2265   5.3932   5.3932   5.9307
     5.9307   6.0784   6.8193   6.8532   6.8532   6.9618   6.9694   6.9694
     7.4931   7.5022   7.5022   7.5802   7.5802   7.6549   8.3571   8.5079
     8.5079   9.0268   9.0510   9.0510   9.2118   9.6421

          k = 0.3750 0.3750-0.5000 ( 21392 PWs)   bands (ev):

   -67.7788 -34.5601 -34.5601 -34.5601  -2.4059  -1.9352  -1.7143  -1.4809
    -1.4216  -1.2769  -0.9969  -0.7185   1.3380   1.8121   1.8754   1.9887
     2.1336   2.2956   2.3113   2.4371   2.4852   2.5924   2.8209   2.9142
     2.9479   3.0081   3.2502   3.3673   3.4247   3.5491   3.5626   3.6778
     3.8569   3.9694   4.0360   4.3639   5.4234   5.7410   6.0209   6.1139
     6.1349   6.1688   6.6253   6.7125   6.7221   6.8131   7.0322   7.0688
     7.3359   7.3452   7.5771   7.6775   7.6850   7.7718   8.2281   8.2581
     8.2766   8.3741   8.6408   8.9449   9.5493   9.8206

          k = 0.3750-0.5000-0.5000 ( 21412 PWs)   bands (ev):

   -67.7788 -34.5601 -34.5601 -34.5601  -2.3335  -1.7665  -1.7665  -1.5999
    -1.4254  -1.2061  -1.2061  -0.9165   1.5084   2.0832   2.0832   2.2617
     2.2774   2.4926   2.4926   2.6195   2.6355   2.6985   2.6985   2.8742
     2.9053   3.0959   3.0959   3.1595   3.1759   3.3013   3.3013   3.4674
     3.5204   3.7015   3.7015   4.1160   5.9507   6.2659   6.2659   6.3765
     6.3916   6.4738   6.4738   6.6750   6.8007   6.8548   6.8548   7.0369
     7.3257   7.4719   7.4719   7.5460   7.6476   7.8675   7.8675   7.9368
     7.9522   8.0617   8.0617   8.3691   9.8594  10.2622

          k =-0.5000-0.5000-0.5000 ( 21368 PWs)   bands (ev):

   -67.7788 -34.5601 -34.5601 -34.5601  -2.2734  -1.5505  -1.5505  -1.5505
    -1.4912  -1.4912  -1.4912  -1.0930   1.7595   2.6049   2.6049   2.6049
     2.8510   2.8510   2.8599   2.8599   2.8599   2.8612   2.8612   2.8612
     2.8613   2.8613   2.8613   2.8700   2.8700   2.8700   2.8847   2.8847
     3.1263   3.1263   3.1263   3.7289   6.4968   6.7957   6.7957   6.7957
     7.1161   7.1161   7.1161   7.1287   7.1287   7.1297   7.1297   7.1297
     7.1425   7.1425   7.1425   7.1465   7.1465   7.1852   7.1852   7.1852
     7.4527   7.4527   7.4527   7.7925  10.7161  10.9464

     the Fermi energy is     7.8930 ev

!    total energy              =    -287.86870993 Ry
     estimated scf accuracy    <          6.7E-10 Ry
     smearing contrib. (-TS)   =       0.00036058 Ry
     internal energy E=F+TS    =    -287.86907051 Ry

     The total energy is F=E-TS. E is the sum of the following terms:
     one-electron contribution =     -42.04508742 Ry
     hartree contribution      =      66.18042335 Ry
     xc contribution           =    -100.71771183 Ry
     ewald contribution        =    -211.28669461 Ry

     convergence has been achieved in  12 iterations

     Forces acting on atoms (cartesian axes, Ry/au):

     atom    1 type  1   force =     0.00000000    0.00000000    0.00000000
     atom    2 type  2   force =    -0.00000000    0.00438833    0.00438833
     atom    3 type  2   force =     0.00438833   -0.00000000    0.00438833
     atom    4 type  2   force =     0.00438833    0.00438833    0.00000000
     atom    5 type  2   force =     0.00000000    0.00000000    0.00000000
     atom    6 type  2   force =    -0.00000000    0.00438833   -0.00438833
     atom    7 type  2   force =     0.00438833   -0.00000000   -0.00438833
     atom    8 type  2   force =     0.00233382    0.00233382    0.00000000
     atom    9 type  2   force =     0.00000000    0.00000000    0.00000000
     atom   10 type  2   force =     0.00000000   -0.00438833    0.00438833
     atom   11 type  2   force =     0.00233382   -0.00000000    0.00233382
     atom   12 type  2   force =     0.00438833   -0.00438833   -0.00000000
     atom   13 type  2   force =     0.00000000    0.00000000    0.00000000
     atom   14 type  2   force =    -0.00000000   -0.00438833   -0.00438833
     atom   15 type  2   force =     0.00233382   -0.00000000   -0.00233382
     atom   16 type  2   force =     0.00233382   -0.00233382    0.00000000
     atom   17 type  2   force =     0.00000000    0.00000000    0.00000000
     atom   18 type  2   force =     0.00000000    0.00233382    0.00233382
     atom   19 type  2   force =    -0.00438833    0.00000000    0.00438833
     atom   20 type  2   force =    -0.00438833    0.00438833    0.00000000
     atom   21 type  2   force =     0.00000000    0.00000000    0.00000000
     atom   22 type  2   force =     0.00000000    0.00233382   -0.00233382
     atom   23 type  2   force =    -0.00438833    0.00000000   -0.00438833
     atom   24 type  2   force =    -0.00233382    0.00233382    0.00000000
     atom   25 type  2   force =     0.00000000    0.00000000    0.00000000
     atom   26 type  2   force =    -0.00000000   -0.00233382    0.00233382
     atom   27 type  2   force =    -0.00233382   -0.00000000    0.00233382
     atom   28 type  2   force =    -0.00438833   -0.00438833    0.00000000
     atom   29 type  3   force =     0.00000000    0.00000000    0.00000000
     atom   30 type  2   force =     0.00000000   -0.00233382   -0.00233382
     atom   31 type  2   force =    -0.00233382    0.00000000   -0.00233382
     atom   32 type  2   force =    -0.00233382   -0.00233382    0.00000000

     Total force =     0.024350     Total SCF correction =     0.000036


     Computing stress (Cartesian axis) and pressure

          total   stress  (Ry/bohr**3)                   (kbar)     P=       -2.63
  -0.00001790   0.00000000   0.00000000           -2.63        0.00        0.00
   0.00000000  -0.00001790   0.00000000            0.00       -2.63        0.00
   0.00000000   0.00000000  -0.00001790            0.00        0.00       -2.63


     BFGS Geometry Optimization
     Energy error            =      0.0E+00
     Gradient error          =      4.4E-03

     number of scf cycles    =   1
     number of bfgs steps    =   0

     energy   new            =    -287.8687099278 Ry

     new trust radius        =       0.0062060326 bohr
     new conv_thr            =       0.0000000100 Ry


ATOMIC_POSITIONS (angstrom)
Mg            0.0000000000        0.0000000000        0.0000000000
Al           -0.0000000000        2.0273222030        2.0273222030
Al            2.0273222030       -0.0000000000        2.0273222030
Al            2.0273222030        2.0273222030        0.0000000000
Al            0.0000000000        0.0000000000        4.0500000000
Al           -0.0000000000        2.0273222030        6.0726777970
Al            2.0273222030       -0.0000000000        6.0726777970
Al            2.0262350030        2.0262350030        4.0500000000
Al            0.0000000000        4.0500000000        0.0000000000
Al            0.0000000000        6.0726777970        2.0273222030
Al            2.0262350030        4.0500000000        2.0262350030
Al            2.0273222030        6.0726777970       -0.0000000000
Al            0.0000000000        4.0500000000        4.0500000000
Al           -0.0000000000        6.0726777970        6.0726777970
Al            2.0262350030        4.0500000000        6.0737649970
Al            2.0262350030        6.0737649970        4.0500000000
Al            4.0500000000        0.0000000000        0.0000000000
Al            4.0500000000        2.0262350030        2.0262350030
Al            6.0726777970        0.0000000000        2.0273222030
Al            6.0726777970        2.0273222030        0.0000000000
Al            4.0500000000        0.0000000000        4.0500000000
Al            4.0500000000        2.0262350030        6.0737649970
Al            6.0726777970        0.0000000000        6.0726777970
Al            6.0737649970        2.0262350030        4.0500000000
Al            4.0500000000        4.0500000000        0.0000000000
Al            4.0500000000        6.0737649970        2.0262350030
Al            6.0737649970        4.0500000000        2.0262350030
Al            6.0726777970        6.0726777970        0.0000000000
Si            4.0500000000        4.0500000000        4.0500000000
Al            4.0500000000        6.0737649970        6.0737649970
Al            6.0737649970        4.0500000000        6.0737649970
Al            6.0737649970        6.0737649970        4.0500000000



     Writing output data file qe_tmp/Al30MgSi_far.save/
     NEW-OLD atomic charge density approx. for the potential

     total cpu time spent up to now is    10534.8 secs

     Self-consistent Calculation

     iteration #  1     ecut=    50.00 Ry     beta= 0.70
     Davidson diagonalization with overlap
     ethr =  1.00E-06,  avg # of iterations =  3.2

     Threshold (ethr) on eigenvalues was too large:
     Diagonalizing with lowered threshold

     Davidson diagonalization with overlap
     ethr =  8.01E-09,  avg # of iterations =  9.3

     total cpu time spent up to now is    12430.5 secs

     total energy              =    -287.86919790 Ry
     estimated scf accuracy    <       0.00009992 Ry

     iteration #  2     ecut=    50.00 Ry     beta= 0.70
     Davidson diagonalization with overlap
     ethr =  9.61E-08,  avg # of iterations =  5.9

     total cpu time spent up to now is    13190.3 secs

     total energy              =    -287.86909287 Ry
     estimated scf accuracy    <       0.00159567 Ry

     iteration #  3     ecut=    50.00 Ry     beta= 0.70
     Davidson diagonalization with overlap
     ethr =  9.61E-08,  avg # of iterations =  5.7

     total cpu time spent up to now is    13949.7 secs

     total energy              =    -287.86926573 Ry
     estimated scf accuracy    <       0.00000837 Ry

     iteration #  4     ecut=    50.00 Ry     beta= 0.70
     Davidson diagonalization with overlap
     ethr =  8.05E-09,  avg # of iterations =  4.9

     total cpu time spent up to now is    14632.8 secs

     total energy              =    -287.86926869 Ry
     estimated scf accuracy    <       0.00000012 Ry

     iteration #  5     ecut=    50.00 Ry     beta= 0.70
     Davidson diagonalization with overlap
     c_bands:  1 eigenvalues not converged
     ethr =  1.14E-10,  avg # of iterations =  8.0

     total cpu time spent up to now is    15643.1 secs

     total energy              =    -287.86926883 Ry
     estimated scf accuracy    <       0.00000012 Ry

     iteration #  6     ecut=    50.00 Ry     beta= 0.70
     Davidson diagonalization with overlap
     ethr =  1.14E-10,  avg # of iterations =  2.2

     total cpu time spent up to now is    16177.9 secs

     total energy              =    -287.86926884 Ry
     estimated scf accuracy    <       0.00000002 Ry

     iteration #  7     ecut=    50.00 Ry     beta= 0.70
     Davidson diagonalization with overlap
     ethr =  1.93E-11,  avg # of iterations =  4.7

     total cpu time spent up to now is    16871.0 secs

     End of self-consistent calculation

          k = 0.0000 0.0000 0.0000 ( 21367 PWs)   bands (ev):

   -67.7828 -34.5638 -34.5638 -34.5638  -3.2978  -1.4111  -0.9709  -0.9709
    -0.9641  -0.9641  -0.9641   1.1104   1.2338   1.2338   1.2338   1.2346
     1.2346   1.2400   1.2400   1.2400   1.2457   1.2457   1.2457   3.3170
     3.3170   3.3170   3.3216   3.5275   3.5275   3.5275   3.6605   4.9518
     4.9518   4.9518   6.1434   6.3032   6.3032   6.9485   6.9485   6.9485
     7.0437   7.0437   7.0437   7.0471   7.0471   7.0471   7.0703   7.0703
     7.0703   8.0092   8.0092   8.0092   8.0621   8.1026   8.1026   8.4292
     8.9587   8.9587   8.9638   8.9638   8.9638   9.1304

          k = 0.0000 0.0000 0.1250 ( 21419 PWs)   bands (ev):

   -67.7828 -34.5638 -34.5638 -34.5638  -3.2648  -1.6136  -1.2113  -0.9362
    -0.9296  -0.9296  -0.4382   0.7205   0.7272   0.7292   0.7292   1.2171
     1.2704   1.2704   1.2799   1.7389   1.8139   1.8183   1.8183   2.9074
     2.9102   2.9102   2.9908   3.9992   3.9992   4.0071   4.0591   4.3939
     4.9839   4.9839   6.1575   6.3371   6.4918   6.4947   6.5022   6.5022
     6.5468   6.5468   6.8794   7.0232   7.0232   7.0796   7.1026   7.5685
     7.5685   7.7392   7.8646   8.2695   8.2815   8.2815   8.3673   8.6180
     8.6227   8.6227   8.6381   8.6657   8.7675   8.7997

          k = 0.0000 0.0000 0.2500 ( 21418 PWs)   bands (ev):

   -67.7828 -34.5638 -34.5638 -34.5638  -3.1677  -2.0108  -1.1802  -0.8322
    -0.8264  -0.8264   0.1051   0.2737   0.2842   0.2842   0.4216   1.3019
     1.3702   1.3702   1.3824   2.2353   2.4095   2.4095   2.4584   2.4711
     2.5309   2.5309   2.7132   3.5089   4.6164   4.6164   4.6395   4.6657
     5.0814   5.0814   5.5182   5.6263   5.6403   5.6403   6.1353   6.1353
     6.3890   6.4392   7.0955   7.0955   7.1769   7.1993   7.2865   7.4926
     7.7697   7.7823   7.7823   7.9088   7.9542   8.0750   8.0750   8.2159
     8.2419   8.3595   8.3595   8.5643   8.5915   8.6238

          k = 0.0000 0.0000 0.3750 ( 21446 PWs)   bands (ev):

   -67.7828 -34.5638 -34.5638 -34.5638  -3.0177  -2.3573  -1.1076  -0.6589
    -0.6561  -0.6561  -0.1053  -0.0915  -0.0915   0.0181   0.8940   1.4374
     1.5320   1.5320   1.5530   2.0986   2.1090   2.1090   2.1589   2.6660
     3.1553   3.1662   3.1744   3.1744   4.6826   4.7538   4.7538   4.7586
     5.1669   5.1669   5.3253   5.3378   5.3893   5.3893   5.7978   5.7978
     6.4933   6.6076   6.7843   6.8889   6.8889   6.9119   7.1433   7.2587
     7.2587   7.3390   7.3602   7.3722   7.8588   7.8866   7.9320   7.9320
     8.5242   8.7797   8.7797   8.7905   8.8924   8.8924

          k = 0.0000 0.0000-0.5000 ( 21426 PWs)   bands (ev):

   -67.7828 -34.5638 -34.5638 -34.5638  -2.9015  -2.5401  -1.0692  -0.4656
    -0.4656  -0.4264  -0.4065  -0.3505  -0.3505  -0.0787   1.2826   1.6879
     1.6879   1.7022   1.7769   1.8072   1.8523   1.8871   1.8871   2.2081
     3.7917   3.9065   3.9065   3.9323   3.9368   3.9720   3.9721   3.9721
     5.3181   5.3181   5.6094   5.6094   5.9139   6.0607   6.0607   6.0970
     6.0972   6.1307   6.1472   6.1472   6.6986   6.8118   6.8771   7.1180
     7.3143   7.3143   7.5472   7.5563   7.5765   7.6345   7.8060   7.8060
     8.5799   8.9394   8.9394   9.0049   9.1117   9.1119

          k = 0.0000 0.1250 0.1250 ( 21407 PWs)   bands (ev):

   -67.7828 -34.5638 -34.5638 -34.5638  -3.2319  -1.6453  -1.4535  -1.0547
    -0.8951  -0.4825  -0.3457   0.2308   0.7579   0.7583   0.7604   0.7662
     1.2778   1.3049   1.7535   1.8468   1.8487   1.8535   2.3584   2.4101
     2.4942   3.3782   3.3850   3.5964   3.6605   4.4133   4.4308   4.5617
     4.5877   5.0187   5.9621   6.0076   6.2954   6.4175   6.4504   6.5603
     6.5859   6.5953   6.6376   6.8675   6.9132   7.0438   7.0454   7.5483
     7.6352   7.8064   7.9766   8.1101   8.1265   8.1345   8.2176   8.3375
     8.3759   8.4355   8.7476   8.7741   8.9321   9.1745

          k = 0.0000 0.1250 0.2500 ( 21406 PWs)   bands (ev):

   -67.7828 -34.5638 -34.5638 -34.5638  -3.1350  -1.9815  -1.4500  -0.9833
    -0.7920  -0.3591  -0.1875   0.1777   0.3183   0.3964   0.8640   0.8651
     0.8670   1.7693   1.9162   1.9456   2.0005   2.1180   2.4662   2.4985
     2.9392   3.0450   3.1396   3.5529   4.1371   4.1439   4.5411   5.0597
     5.1275   5.1965   5.2393   5.5602   5.6214   5.6683   6.1428   6.1650
     6.4179   6.6079   6.6561   6.6673   7.0126   7.2475   7.2802   7.4569
     7.5978   7.6129   7.7059   7.8382   7.9099   7.9648   8.0297   8.1909
     8.2271   8.3465   8.4331   8.7951   8.9912   9.0925

          k = 0.0000 0.1250 0.3750 ( 21434 PWs)   bands (ev):

   -67.7828 -34.5638 -34.5638 -34.5638  -2.9855  -2.3244  -1.3314  -0.8804
    -0.6217  -0.5346  -0.2172  -0.0573   0.0564   0.4874   0.8318   1.0331
     1.1273   1.5888   1.6128   2.0768   2.1258   2.5308   2.6589   2.6740
     2.8338   3.2004   3.2090   3.7247   4.2361   4.5888   4.7610   4.7799
     4.8329   4.9360   5.2284   5.2560   5.3016   5.8261   5.8635   5.9065
     6.3817   6.4141   6.6047   6.7761   6.8083   6.8252   7.0532   7.2480
     7.3461   7.4030   7.4191   7.4714   7.4757   7.8446   7.8882   8.2697
     8.3987   8.4300   8.8992   8.9412   9.0810   9.3023

          k = 0.0000 0.1250-0.5000 ( 21398 PWs)   bands (ev):

   -67.7828 -34.5638 -34.5638 -34.5638  -2.8703  -2.5057  -1.2524  -0.8354
    -0.6575  -0.4313  -0.3162  -0.2170   0.0400   0.3127   1.0014   1.2202
     1.3354   1.4540   1.7375   1.8323   2.1915   2.3097   2.4245   2.6096
     3.3835   3.4675   3.8914   3.9391   3.9822   4.0054   4.4490   4.5162
     4.7541   5.0383   5.3344   5.5756   5.5757   5.6002   5.6920   5.7026
     6.4422   6.6293   6.6469   6.6788   6.7526   6.8903   6.9278   7.0240
     7.0366   7.0669   7.2452   7.3065   7.3497   7.6124   7.9928   8.2623
     8.3669   8.7089   9.0720   9.2193   9.2381   9.4786

          k = 0.0000 0.2500 0.2500 ( 21408 PWs)   bands (ev):

   -67.7828 -34.5638 -34.5638 -34.5638  -3.0389  -1.9449  -1.8018  -0.9693
    -0.6889  -0.5938   0.0774   0.3795   0.4170   0.4242   0.4466   0.6107
     1.3638   1.5086   1.5199   1.6966   2.5178   2.5873   2.5983   2.5994
     3.4703   3.4875   3.5827   3.6371   3.7311   3.8026   4.0338   4.6994
     4.7088   5.1698   5.6353   5.6607   5.7248   5.8232   5.8423   5.9059
     6.2320   6.2733   6.5736   6.6669   6.7384   6.8425   6.8746   6.9225
     6.9593   7.3287   7.6925   7.7268   8.1220   8.1366   8.2998   8.3494
     8.7784   8.8174   8.9346   8.9544   8.9584   9.1266

          k = 0.0000 0.2500 0.3750 ( 21434 PWs)   bands (ev):

   -67.7828 -34.5638 -34.5638 -34.5638  -2.8914  -2.2279  -1.7180  -1.1177
    -0.6749  -0.5188   0.0017   0.0452   0.4108   0.5893   0.6448   1.0393
     1.1312   1.1487   1.3115   2.2311   2.6202   2.7560   2.7642   3.2075
     3.2628   3.3534   3.4382   3.6927   3.8729   4.2797   4.3568   4.4041
     4.5750   4.8400   4.8771   5.3427   5.7357   5.8814   5.9035   5.9605
     6.0223   6.1395   6.3829   6.4285   6.5162   6.5373   6.5776   6.7983
     7.0053   7.1391   7.6518   7.8254   8.0901   8.1125   8.2701   8.4796
     8.4928   8.8425   8.9316   9.1140   9.1443   9.2727

          k = 0.0000 0.2500-0.5000 ( 21376 PWs)   bands (ev):

   -67.7828 -34.5638 -34.5638 -34.5638  -2.7794  -2.4035  -1.6081  -1.2727
    -0.6255  -0.3283  -0.2137  -0.1159   0.4988   0.7695   0.7774   0.8853
     0.8929   1.1078   1.8379   1.9206   2.7715   2.9463   2.9694   3.0153
     3.0633   3.2375   3.8268   4.0359   4.0386   4.0657   4.1050   4.1595
     4.9883   5.0743   5.1268   5.1813   5.2437   5.3542   5.4688   5.7454
     5.9350   6.1454   6.2282   6.4434   6.5363   6.7539   6.8139   6.9961
     7.2699   7.2720   7.3139   7.4061   7.9155   8.2269   8.2739   8.3963
     8.4636   8.5935   8.6754   8.8673   9.6718   9.9205

          k = 0.0000 0.3750 0.3750 ( 21364 PWs)   bands (ev):

   -67.7828 -34.5638 -34.5638 -34.5638  -2.7488  -2.1147  -2.0113  -1.4480
    -0.5894  -0.3488   0.1246   0.2076   0.2105   0.2182   0.7758   0.8501
     1.2142   1.2974   1.8479   1.9165   2.7856   2.8960   3.3146   3.4309
     3.4526   3.4731   3.4860   3.5163   3.9180   3.9368   4.1439   4.2663
     4.9185   4.9330   4.9702   5.0887   5.2093   5.4877   5.6159   5.6207
     5.6259   5.8450   6.0789   6.0916   6.5772   6.6036   6.6599   6.7768
     7.2297   7.2742   7.4610   7.5432   8.1411   8.3216   8.7427   8.7522
     8.7883   8.8300   9.1087   9.1943   9.3863   9.4672

          k = 0.0000 0.3750-0.5000 ( 21380 PWs)   bands (ev):

   -67.7828 -34.5638 -34.5638 -34.5638  -2.6451  -2.2382  -1.9262  -1.6421
    -0.5206  -0.1582  -0.0445   0.0300   0.2707   0.4028   0.5194   0.6881
     1.3698   1.6658   1.9962   2.0740   2.5947   2.6738   3.0071   3.2910
     3.4681   3.6359   3.7611   3.8797   4.1345   4.1900   4.1913   4.2693
     4.7727   4.7851   4.8216   4.9203   5.1146   5.2735   5.3653   5.6245
     5.6321   5.7911   5.8596   5.8953   6.1987   6.4790   6.9095   7.0316
     7.3399   7.6403   7.6765   7.9364   7.9381   7.9545   7.9973   8.1581
     9.2325   9.4278   9.5157   9.5173   9.5584   9.5671

          k = 0.0000-0.5000-0.5000 ( 21392 PWs)   bands (ev):

   -67.7828 -34.5638 -34.5638 -34.5638  -2.5535  -2.0812  -2.0812  -1.8674
    -0.4518   0.0347   0.1392   0.1392   0.1416   0.1416   0.2650   0.5170
     1.9099   2.2017   2.2017   2.3113   2.3318   2.4194   2.4194   2.6242
     4.0419   4.1865   4.2677   4.2677   4.3481   4.3609   4.3609   4.3748
     4.4969   4.5986   4.6123   4.6280   4.6280   4.7084   4.7084   5.1627
     5.7346   6.0141   6.0141   6.2940   6.5124   6.5124   6.5148   6.5738
     7.0963   7.4798   7.4798   7.8531   8.6196   8.6683   8.6995   8.6995
     8.7308   8.7308   8.7552   8.9366   9.7313  10.1737

          k = 0.1250 0.1250 0.1250 ( 21410 PWs)   bands (ev):

   -67.7828 -34.5638 -34.5638 -34.5638  -3.1990  -1.6628  -1.4188  -1.4188
    -0.5785  -0.3115  -0.3115   0.2451   0.2451   0.3143   1.2405   1.3361
     1.3394   1.3394   1.3425   1.3425   1.9571   2.3321   2.4244   2.4244
     2.9772   2.9772   3.0571   4.0574   4.0574   4.0847   4.4702   4.4702
     4.4704   5.1334   5.9524   6.0302   6.0302   6.0371   6.0444   6.0444
     6.7915   6.9306   6.9306   7.0838   7.0892   7.0892   7.0945   7.1052
     7.1052   7.6528   7.6528   7.7538   8.3606   8.4085   8.4085   8.5500
     8.5603   8.5603   8.6779   8.6939   8.6939   8.8385

          k = 0.1250 0.1250 0.2500 ( 21399 PWs)   bands (ev):

   -67.7828 -34.5638 -34.5638 -34.5638  -3.1024  -1.9528  -1.4753  -1.3147
    -0.5108  -0.2292  -0.1815  -0.0802   0.2220   0.4248   0.8956   0.8977
     1.3299   1.4380   1.5601   1.9661   1.9840   2.4208   2.5417   2.6511
     3.0249   3.0724   3.4671   3.5723   3.8262   4.4682   4.5054   4.7421
     4.7843   5.1520   5.1712   5.5961   5.6191   5.7535   6.0502   6.0789
     6.1908   6.2853   6.8317   7.0110   7.0344   7.1273   7.1424   7.2796
     7.3398   7.6382   7.6652   7.7914   7.8445   8.0245   8.1394   8.1943
     8.3379   8.3625   8.6952   8.7160   8.9323   9.2263

          k = 0.1250 0.1250 0.3750 ( 21424 PWs)   bands (ev):

   -67.7828 -34.5638 -34.5638 -34.5638  -2.9535  -2.2915  -1.3749  -1.1420
    -0.6110  -0.5838  -0.1590  -0.0346   0.4784   0.5195   0.5400   1.0319
     1.0927   1.5997   1.6116   2.1354   2.1751   2.6697   2.6932   2.7001
     2.7086   3.2761   3.7339   3.7725   4.2368   4.2916   4.3529   4.6913
     4.7129   5.2262   5.2732   5.3157   5.3530   5.4091   5.4397   5.9424
     6.2730   6.3097   6.4270   6.8385   6.9225   6.9621   6.9623   7.1893
     7.2305   7.3708   7.4002   7.7235   7.7586   7.9196   7.9199   8.1127
     8.4531   8.4747   8.8188   8.8659   9.2464   9.4544

          k = 0.1250 0.1250-0.5000 ( 21386 PWs)   bands (ev):

   -67.7828 -34.5638 -34.5638 -34.5638  -2.8392  -2.4714  -1.3099  -0.9306
    -0.8636  -0.7110  -0.1147   0.1741   0.2422   0.4013   0.6239   0.9039
     1.5468   1.7553   1.7825   1.9056   1.9546   2.1007   2.8055   3.0801
     3.3856   3.4528   3.4831   3.5200   4.4144   4.5158   4.5364   4.5487
     4.7342   4.8364   5.0148   5.0735   5.1406   5.2581   6.1085   6.1131
     6.2001   6.2149   6.3523   6.4894   6.6152   6.8018   7.0273   7.2077
     7.3696   7.3934   7.4975   7.5160   7.5318   7.6706   7.7709   7.7931
     8.8797   8.9528   9.1188   9.1667   9.1726   9.1889

          k = 0.1250 0.2500 0.2500 ( 21396 PWs)   bands (ev):

   -67.7828 -34.5638 -34.5638 -34.5638  -3.0066  -1.9196  -1.7670  -1.2969
    -0.6773  -0.3102  -0.1013  -0.0303   0.3630   0.4457   0.9074   0.9992
     1.1132   1.5419   1.5530   2.0266   2.0863   2.1632   3.0293   3.1199
     3.2116   3.2612   3.6082   3.6680   3.6908   4.2850   4.3747   4.5902
     4.7415   4.7441   5.2364   5.2614   5.3600   5.6745   5.7125   6.1693
     6.2997   6.3746   6.3872   6.5103   6.7537   6.8166   6.9068   7.1932
     7.4132   7.4366   7.7441   7.8047   8.0587   8.1702   8.2941   8.3196
     8.4564   8.5327   8.8666   8.8742   9.1639   9.2168

          k = 0.1250 0.2500 0.3750 ( 21425 PWs)   bands (ev):

   -67.7828 -34.5638 -34.5638 -34.5638  -2.8597  -2.1956  -1.6906  -1.1961
    -0.9595  -0.5036  -0.0979   0.1139   0.4644   0.6317   0.7237   1.0328
     1.1737   1.2821   1.7402   2.2297   2.2675   2.6548   2.7809   2.9248
     3.3080   3.6629   3.7975   3.8353   3.9109   4.0868   4.3503   4.3952
     4.4231   4.7859   5.0081   5.2966   5.3241   5.4505   5.6275   5.7906
     5.9811   6.0439   6.0862   6.4337   6.4951   6.6332   7.0186   7.0749
     7.3673   7.4450   7.5994   7.9512   7.9980   8.2939   8.3867   8.4343
     8.5411   8.6810   8.9504   9.0699   9.1462   9.1822

          k = 0.1250 0.2500-0.5000 ( 21404 PWs)   bands (ev):

   -67.7828 -34.5638 -34.5638 -34.5638  -2.7489  -2.3692  -1.5878  -1.2428
    -0.9691  -0.6742  -0.0085   0.2587   0.3724   0.4848   0.7150   0.9898
     1.2659   1.5442   1.8700   1.9573   2.3749   2.6385   2.9830   3.0674
     3.4237   3.5208   3.5831   3.7147   3.9064   4.1838   4.5164   4.5852
     4.6734   4.7789   4.9311   5.1253   5.1676   5.2058   5.5199   5.7354
     5.7469   5.8873   6.0083   6.3171   6.5980   6.7465   6.8449   6.9013
     7.3860   7.6004   7.8236   7.9155   8.0611   8.2313   8.3507   8.4314
     8.4397   8.6012   8.6355   8.9321   9.1796   9.3720

          k = 0.1250 0.3750 0.3750 ( 21399 PWs)   bands (ev):

   -67.7828 -34.5638 -34.5638 -34.5638  -2.7181  -2.0843  -1.9764  -1.4224
    -0.9524  -0.3816  -0.3076   0.1642   0.2749   0.7342   0.7918   1.2696
     1.3318   1.3674   1.8810   1.9562   2.7753   2.9180   2.9412   2.9672
     3.4969   3.5159   3.5296   3.5774   3.9650   4.0333   4.4555   4.5581
     4.6110   4.6494   4.9554   5.1126   5.1283   5.1377   5.5184   5.5360
     5.6255   5.6552   6.1303   6.1761   6.2701   6.6600   6.7136   6.7345
     7.3979   7.8116   7.9630   8.1082   8.2847   8.2881   8.3965   8.5909
     8.6640   8.7432   9.2016   9.2554   9.3106   9.3518

          k = 0.1250 0.3750-0.5000 ( 21438 PWs)   bands (ev):

   -67.7828 -34.5638 -34.5638 -34.5638  -2.6159  -2.2038  -1.8946  -1.6095
    -0.8504  -0.5187  -0.2161   0.0779   0.2880   0.5863   0.8961   1.1754
     1.4127   1.7022   2.0292   2.1070   2.6255   2.7056   3.0204   3.0739
     3.3149   3.3374   3.6741   3.7461   4.0980   4.2064   4.2886   4.5326
     4.6201   4.7268   4.7962   5.0497   5.0760   5.3337   5.3500   5.4458
     5.6280   5.7548   5.7784   5.8628   6.0262   6.1228   7.3017   7.3409
     7.4328   7.5396   7.6566   8.0231   8.2226   8.4893   8.4996   8.6398
     8.7206   8.9829   9.0196   9.0997   9.3216   9.4022

          k = 0.1250-0.5000-0.5000 ( 21408 PWs)   bands (ev):

   -67.7828 -34.5638 -34.5638 -34.5638  -2.5259  -2.0463  -2.0463  -1.8350
    -0.7494  -0.3766  -0.3766  -0.1297   0.3947   0.7238   0.7238   0.9768
     1.9447   2.2343   2.2343   2.3452   2.3657   2.4520   2.4520   2.6551
     3.6223   3.8663   3.8663   3.9555   3.9773   4.0779   4.0779   4.2361
     4.6737   4.9700   4.9700   5.0561   5.0748   5.1795   5.1795   5.1949
     5.4541   5.4541   5.4787   5.7388   6.5538   6.5939   6.5939   6.7122
     7.6763   8.0457   8.0457   8.1661   8.2381   8.2381   8.2391   8.4798
     9.1878   9.2493   9.2493   9.2616   9.4100   9.5749

          k = 0.2500 0.2500 0.2500 ( 21428 PWs)   bands (ev):

   -67.7828 -34.5638 -34.5638 -34.5638  -2.9117  -1.8829  -1.6627  -1.6627
    -0.6274  -0.5494  -0.5494   0.3620   0.5484   0.5484   0.5694   1.6408
     1.6408   1.6424   1.6488   1.6488   1.6527   2.7404   2.7404   2.7531
     3.6595   3.7567   3.7567   3.7629   3.8072   3.8072   4.7588   4.8325
     4.8390   4.8390   4.8492   4.8492   4.9086   4.9086   4.9979   5.9183
     5.9183   6.0266   6.8945   6.8945   6.9003   6.9618   6.9715   6.9715
     7.0186   8.0224   8.0326   8.0326   8.0554   8.0554   8.0814   8.1706
     8.2641   8.2641   9.2962   9.2963   9.3094   9.3377

          k = 0.2500 0.2500 0.3750 ( 21397 PWs)   bands (ev):

   -67.7828 -34.5638 -34.5638 -34.5638  -2.7673  -2.1017  -1.6634  -1.4894
    -0.9294  -0.9097  -0.4222   0.1955   0.5400   0.7189   1.1508   1.2708
     1.3641   1.8024   1.8065   2.2428   2.3263   2.4121   2.4894   2.8782
     3.4092   3.7849   3.8894   3.9325   3.9878   4.0402   4.3825   4.4613
     4.4617   4.5296   4.6535   4.9226   4.9975   5.1297   5.5296   5.5702
     5.6335   5.7560   6.0968   6.1074   7.0176   7.0635   7.2215   7.2541
     7.5395   7.5805   7.6730   7.7456   7.7632   8.3380   8.4031   8.7062
     8.7360   8.9016   8.9890   9.2375   9.2525   9.3151

          k = 0.2500 0.2500-0.5000 ( 21422 PWs)   bands (ev):

   -67.7828 -34.5638 -34.5638 -34.5638  -2.6605  -2.2670  -1.5928  -1.2775
    -1.2103  -1.0511  -0.2968   0.0064   0.6175   0.9266   0.9952   1.1544
     1.7518   1.9570   1.9823   2.1064   2.1566   2.2984   3.0415   3.1169
     3.1471   3.1829   3.9025   4.0424   4.0621   4.0927   4.2791   4.2927
     4.3073   4.5297   5.0228   5.1308   5.1424   5.2024   5.2160   5.3288
     5.4427   5.6359   6.3106   6.3608   6.4013   6.4601   7.1845   7.2428
     7.5028   7.5238   8.1583   8.2493   8.3025   8.3381   8.3512   8.5281
     8.6268   8.6630   8.8859   9.0074   9.4008   9.4220

          k = 0.2500 0.3750 0.3750 ( 21425 PWs)   bands (ev):

   -67.7828 -34.5638 -34.5638 -34.5638  -2.6292  -1.9979  -1.8719  -1.4488
    -1.2371  -0.7828  -0.7569  -0.1548   0.7416   1.1868   1.4126   1.4612
     1.5440   1.9082   1.9798   2.1369   2.4656   2.5211   2.9090   2.9726
     3.1513   3.1808   3.6011   3.6201   3.9502   4.1336   4.1760   4.5032
     4.5570   4.5985   4.6334   4.8074   4.8538   5.0981   5.2446   5.2696
     5.4607   6.1854   6.2682   6.3243   6.7077   6.7284   6.8575   6.9677
     7.6672   7.7707   7.9138   7.9209   8.1931   8.3601   8.3715   8.4406
     8.6470   9.1234   9.1578   9.1996   9.2937   9.4642

          k = 0.2500 0.3750-0.5000 ( 21448 PWs)   bands (ev):

   -67.7828 -34.5638 -34.5638 -34.5638  -2.5322  -2.1014  -1.8047  -1.5150
    -1.2416  -0.9599  -0.6391  -0.3530   0.8475   1.2236   1.4403   1.6187
     1.7345   1.8669   2.1274   2.2080   2.6339   2.7301   2.7860   2.9228
     3.1082   3.2742   3.3223   3.4082   3.8363   3.8869   4.1508   4.2983
     4.4134   4.5333   4.7500   4.7781   5.0569   5.0800   5.3799   5.4915
     5.8774   5.9442   6.0339   6.1489   6.3714   6.6778   7.0178   7.1111
     7.4710   7.5533   7.8826   8.1816   8.4278   8.5215   8.5712   8.6671
     8.6985   8.9705   9.0705   9.1233   9.1590   9.2147

          k = 0.2500-0.5000-0.5000 ( 21452 PWs)   bands (ev):

   -67.7828 -34.5638 -34.5638 -34.5638  -2.4481  -1.9417  -1.9417  -1.7398
    -1.1336  -0.8261  -0.8261  -0.5580   0.9586   1.3721   1.3721   1.5995
     2.0535   2.3311   2.3311   2.4469   2.4673   2.5485   2.5485   2.7447
     3.2142   3.4435   3.4435   3.5250   3.5462   3.6599   3.6599   3.8452
     4.3401   4.5731   4.5731   4.8973   5.2875   5.5856   5.5856   5.6811
     5.7005   5.7992   5.7992   6.0565   6.6521   6.7014   6.7014   6.8447
     7.7030   7.8137   7.8137   7.8953   8.4316   8.7006   8.7006   8.7476
     8.7831   8.8031   8.8997   8.8997   9.0994   9.1763

          k = 0.3750 0.3750 0.3750 ( 21434 PWs)   bands (ev):

   -67.7828 -34.5638 -34.5638 -34.5638  -2.4998  -1.8965  -1.6984  -1.6984
    -1.1374  -1.1374  -1.1048  -0.5116   1.2005   1.6008   1.6008   2.1340
     2.1340   2.1477   2.1508   2.1572   2.1572   2.7115   2.7115   2.7764
     3.1038   3.2109   3.2109   3.7163   3.7566   3.7632   3.7632   3.7910
     3.7910   4.3001   4.3001   4.5628   5.2266   5.3914   5.3914   5.9315
     5.9315   6.0838   6.8190   6.8501   6.8501   6.9602   6.9688   6.9688
     7.4917   7.5024   7.5024   7.5839   7.5839   7.6610   8.3537   8.5072
     8.5072   9.0273   9.0510   9.0510   9.2175   9.6375

          k = 0.3750 0.3750-0.5000 ( 21392 PWs)   bands (ev):

   -67.7828 -34.5638 -34.5638 -34.5638  -2.4147  -1.9346  -1.7161  -1.4861
    -1.4188  -1.2748  -0.9988  -0.7104   1.3334   1.8061   1.8775   1.9905
     2.1321   2.2915   2.3084   2.4355   2.4899   2.5951   2.8212   2.9148
     2.9450   3.0085   3.2477   3.3618   3.4267   3.5523   3.5659   3.6779
     3.8555   3.9649   4.0407   4.3712   5.4211   5.7445   6.0207   6.1135
     6.1320   6.1652   6.6275   6.7195   6.7210   6.8150   7.0279   7.0655
     7.3407   7.3484   7.5758   7.6778   7.6804   7.7708   8.2304   8.2647
     8.2746   8.3757   8.6361   8.9503   9.5474   9.8197

          k = 0.3750-0.5000-0.5000 ( 21412 PWs)   bands (ev):

   -67.7828 -34.5638 -34.5638 -34.5638  -2.3432  -1.7681  -1.7681  -1.5950
    -1.4311  -1.2069  -1.2069  -0.9053   1.5034   2.0821   2.0821   2.2697
     2.2709   2.4851   2.4851   2.6160   2.6362   2.7018   2.7018   2.8755
     2.9063   3.0913   3.0913   3.1561   3.1774   3.3090   3.3090   3.4742
     3.5130   3.7006   3.7006   4.1243   5.9516   6.2603   6.2603   6.3730
     6.3926   6.4801   6.4801   6.6764   6.8025   6.8518   6.8518   7.0349
     7.3326   7.4742   7.4742   7.5445   7.6462   7.8611   7.8611   7.9333
     7.9532   8.0687   8.0687   8.3740   9.8536  10.2611

          k =-0.5000-0.5000-0.5000 ( 21368 PWs)   bands (ev):

   -67.7828 -34.5638 -34.5638 -34.5638  -2.2835  -1.5557  -1.5557  -1.5557
    -1.4884  -1.4884  -1.4884  -1.0797   1.7557   2.5973   2.5973   2.5973
     2.8445   2.8445   2.8547   2.8547   2.8547   2.8609   2.8609   2.8609
     2.8610   2.8610   2.8610   2.8702   2.8702   2.8702   2.8921   2.8921
     3.1367   3.1367   3.1367   3.7358   6.5020   6.7915   6.7915   6.7915
     7.1082   7.1082   7.1082   7.1248   7.1248   7.1248   7.1266   7.1266
     7.1443   7.1443   7.1443   7.1465   7.1465   7.1945   7.1945   7.1945
     7.4591   7.4591   7.4591   7.7967  10.7144  10.9429

     the Fermi energy is     7.8932 ev

!    total energy              =    -287.86926884 Ry
     estimated scf accuracy    <          1.9E-09 Ry
     smearing contrib. (-TS)   =       0.00033365 Ry
     internal energy E=F+TS    =    -287.86960249 Ry

     The total energy is F=E-TS. E is the sum of the following terms:
     one-electron contribution =     -41.86324770 Ry
     hartree contribution      =      66.08822977 Ry
     xc contribution           =    -100.71832669 Ry
     ewald contribution        =    -211.37625787 Ry

     convergence has been achieved in   7 iterations

     Forces acting on atoms (cartesian axes, Ry/au):

     atom    1 type  1   force =     0.00000000    0.00000000    0.00000000
     atom    2 type  2   force =     0.00000000    0.00384491    0.00384491
     atom    3 type  2   force =     0.00384491    0.00000000    0.00384491
     atom    4 type  2   force =     0.00384491    0.00384491   -0.00000000
     atom    5 type  2   force =     0.00000000    0.00000000    0.00000000
     atom    6 type  2   force =    -0.00000000    0.00384491   -0.00384491
     atom    7 type  2   force =     0.00384491    0.00000000   -0.00384491
     atom    8 type  2   force =     0.00214262    0.00214262   -0.00000000
     atom    9 type  2   force =     0.00000000    0.00000000    0.00000000
     atom   10 type  2   force =     0.00000000   -0.00384491    0.00384491
     atom   11 type  2   force =     0.00214262   -0.00000000    0.00214262
     atom   12 type  2   force =     0.00384491   -0.00384491    0.00000000
     atom   13 type  2   force =     0.00000000    0.00000000    0.00000000
     atom   14 type  2   force =     0.00000000   -0.00384491   -0.00384491
     atom   15 type  2   force =     0.00214262   -0.00000000   -0.00214262
     atom   16 type  2   force =     0.00214262   -0.00214262   -0.00000000
     atom   17 type  2   force =     0.00000000    0.00000000    0.00000000
     atom   18 type  2   force =    -0.00000000    0.00214262    0.00214262
     atom   19 type  2   force =    -0.00384491   -0.00000000    0.00384491
     atom   20 type  2   force =    -0.00384491    0.00384491   -0.00000000
     atom   21 type  2   force =     0.00000000    0.00000000    0.00000000
     atom   22 type  2   force =     0.00000000    0.00214262   -0.00214262
     atom   23 type  2   force =    -0.00384491    0.00000000   -0.00384491
     atom   24 type  2   force =    -0.00214262    0.00214262    0.00000000
     atom   25 type  2   force =     0.00000000    0.00000000    0.00000000
     atom   26 type  2   force =     0.00000000   -0.00214262    0.00214262
     atom   27 type  2   force =    -0.00214262    0.00000000    0.00214262
     atom   28 type  2   force =    -0.00384491   -0.00384491   -0.00000000
     atom   29 type  3   force =     0.00000000    0.00000000    0.00000000
     atom   30 type  2   force =    -0.00000000   -0.00214262   -0.00214262
     atom   31 type  2   force =    -0.00214262    0.00000000   -0.00214262
     atom   32 type  2   force =    -0.00214262   -0.00214262    0.00000000

     Total force =     0.021563     Total SCF correction =     0.000045


     Computing stress (Cartesian axis) and pressure

          total   stress  (Ry/bohr**3)                   (kbar)     P=       -2.63
  -0.00001791   0.00000000   0.00000000           -2.63        0.00        0.00
   0.00000000  -0.00001791   0.00000000            0.00       -2.63        0.00
   0.00000000   0.00000000  -0.00001791            0.00        0.00       -2.63

     Energy error            =      5.6E-04
     Gradient error          =      3.8E-03

     number of scf cycles    =   2
     number of bfgs steps    =   1

     energy   old            =    -287.8687099278 Ry
     energy   new            =    -287.8692688413 Ry

     CASE: energy  _new < energy  _old


     WARNING: bfgs curvature condition failed, Theta= 0.904
     new trust radius        =       0.0068266358 bohr
     new conv_thr            =       0.0000000004 Ry


ATOMIC_POSITIONS (angstrom)
Mg            0.0000000000        0.0000000000        0.0000000000
Al           -0.0000000000        2.0298766263        2.0298766263
Al            2.0298766263        0.0000000000        2.0298766263
Al            2.0298766263        2.0298766263        0.0000000000
Al            0.0000000000        0.0000000000        4.0500000000
Al           -0.0000000000        2.0298766263        6.0701233737
Al            2.0298766263       -0.0000000000        6.0701233737
Al            2.0276491657        2.0276491657        4.0500000000
Al            0.0000000000        4.0500000000        0.0000000000
Al            0.0000000000        6.0701233737        2.0298766263
Al            2.0276491657        4.0500000000        2.0276491657
Al            2.0298766263        6.0701233737        0.0000000000
Al            0.0000000000        4.0500000000        4.0500000000
Al           -0.0000000000        6.0701233737        6.0701233737
Al            2.0276491657        4.0500000000        6.0723508343
Al            2.0276491657        6.0723508343        4.0500000000
Al            4.0500000000        0.0000000000        0.0000000000
Al            4.0500000000        2.0276491657        2.0276491657
Al            6.0701233737        0.0000000000        2.0298766263
Al            6.0701233737        2.0298766263       -0.0000000000
Al            4.0500000000        0.0000000000        4.0500000000
Al            4.0500000000        2.0276491657        6.0723508343
Al            6.0701233737        0.0000000000        6.0701233737
Al            6.0723508343        2.0276491657        4.0500000000
Al            4.0500000000        4.0500000000        0.0000000000
Al            4.0500000000        6.0723508343        2.0276491657
Al            6.0723508343        4.0500000000        2.0276491657
Al            6.0701233737        6.0701233737        0.0000000000
Si            4.0500000000        4.0500000000        4.0500000000
Al            4.0500000000        6.0723508343        6.0723508343
Al            6.0723508343        4.0500000000        6.0723508343
Al            6.0723508343        6.0723508343        4.0500000000



     Writing output data file qe_tmp/Al30MgSi_far.save/
     NEW-OLD atomic charge density approx. for the potential

     total cpu time spent up to now is    17310.8 secs

     Self-consistent Calculation

     iteration #  1     ecut=    50.00 Ry     beta= 0.70
     Davidson diagonalization with overlap
     ethr =  1.00E-06,  avg # of iterations =  3.7

     Threshold (ethr) on eigenvalues was too large:
     Diagonalizing with lowered threshold

     Davidson diagonalization with overlap
     ethr =  1.47E-08,  avg # of iterations =  8.1

     total cpu time spent up to now is    19115.9 secs

     total energy              =    -287.86972393 Ry
     estimated scf accuracy    <       0.00012177 Ry

     iteration #  2     ecut=    50.00 Ry     beta= 0.70
     Davidson diagonalization with overlap
     ethr =  1.17E-07,  avg # of iterations =  6.1

     total cpu time spent up to now is    19902.9 secs

     total energy              =    -287.86959560 Ry
     estimated scf accuracy    <       0.00193605 Ry

     iteration #  3     ecut=    50.00 Ry     beta= 0.70
     Davidson diagonalization with overlap
     ethr =  1.17E-07,  avg # of iterations =  5.5

     total cpu time spent up to now is    20672.0 secs

     total energy              =    -287.86980624 Ry
     estimated scf accuracy    <       0.00000998 Ry

     iteration #  4     ecut=    50.00 Ry     beta= 0.70
     Davidson diagonalization with overlap
     c_bands:  1 eigenvalues not converged
     ethr =  9.60E-09,  avg # of iterations =  5.4

     total cpu time spent up to now is    21375.7 secs

     total energy              =    -287.86980993 Ry
     estimated scf accuracy    <       0.00000020 Ry

     iteration #  5     ecut=    50.00 Ry     beta= 0.70
     Davidson diagonalization with overlap
     ethr =  1.91E-10,  avg # of iterations =  6.7

     total cpu time spent up to now is    22312.4 secs

     total energy              =    -287.86981010 Ry
     estimated scf accuracy    <       0.00000014 Ry

     iteration #  6     ecut=    50.00 Ry     beta= 0.70
     Davidson diagonalization with overlap
     ethr =  1.39E-10,  avg # of iterations =  2.0

     total cpu time spent up to now is    22843.4 secs

     total energy              =    -287.86981011 Ry
     estimated scf accuracy    <       0.00000003 Ry

     iteration #  7     ecut=    50.00 Ry     beta= 0.70
     Davidson diagonalization with overlap
     ethr =  2.46E-11,  avg # of iterations =  4.7

     total cpu time spent up to now is    23543.4 secs

     total energy              =    -287.86981012 Ry
     estimated scf accuracy    <          2.4E-09 Ry

     iteration #  8     ecut=    50.00 Ry     beta= 0.70
     Davidson diagonalization with overlap
     ethr =  2.27E-12,  avg # of iterations =  5.1

     total cpu time spent up to now is    24271.2 secs

     total energy              =    -287.86981012 Ry
     estimated scf accuracy    <          2.1E-09 Ry

     iteration #  9     ecut=    50.00 Ry     beta= 0.70
     Davidson diagonalization with overlap
     ethr =  2.02E-12,  avg # of iterations =  2.0

     total cpu time spent up to now is    24810.3 secs

     End of self-consistent calculation

          k = 0.0000 0.0000 0.0000 ( 21367 PWs)   bands (ev):

   -67.7870 -34.5678 -34.5678 -34.5678  -3.3013  -1.4126  -0.9731  -0.9731
    -0.9651  -0.9651  -0.9651   1.1160   1.2308   1.2308   1.2308   1.2333
     1.2333   1.2414   1.2414   1.2414   1.2457   1.2457   1.2457   3.3181
     3.3181   3.3181   3.3217   3.5276   3.5276   3.5276   3.6684   4.9494
     4.9494   4.9494   6.1401   6.3025   6.3025   6.9493   6.9493   6.9493
     7.0413   7.0413   7.0413   7.0455   7.0455   7.0455   7.0715   7.0715
     7.0715   8.0084   8.0084   8.0084   8.0568   8.1049   8.1049   8.4312
     8.9580   8.9580   8.9638   8.9638   8.9638   9.1283

          k = 0.0000 0.0000 0.1250 ( 21419 PWs)   bands (ev):

   -67.7870 -34.5678 -34.5678 -34.5678  -3.2685  -1.6149  -1.2131  -0.9384
    -0.9306  -0.9306  -0.4397   0.7184   0.7288   0.7288   0.7300   1.2183
     1.2696   1.2696   1.2798   1.7408   1.8118   1.8178   1.8178   2.9076
     2.9111   2.9111   2.9942   3.9995   3.9995   4.0072   4.0644   4.3919
     4.9814   4.9814   6.1561   6.3363   6.4913   6.4925   6.5017   6.5017
     6.5465   6.5465   6.8781   7.0225   7.0225   7.0779   7.1038   7.5679
     7.5679   7.7392   7.8643   8.2718   8.2814   8.2814   8.3650   8.6170
     8.6224   8.6224   8.6366   8.6686   8.7697   8.7996

          k = 0.0000 0.0000 0.2500 ( 21418 PWs)   bands (ev):

[...]
    -0.5924  -0.5870  -0.1846  -0.0509   0.4732   0.5152   0.5542   1.0167
     1.1161   1.5842   1.6047   2.1635   2.1897   2.6511   2.6861   2.6932
     2.7113   3.2933   3.7342   3.7637   4.2371   4.2824   4.3625   4.6666
     4.6866   5.2280   5.2817   5.3203   5.3428   5.4126   5.4599   5.9526
     6.2590   6.2969   6.4345   6.8476   6.9513   6.9604   6.9833   7.1682
     7.2120   7.3540   7.3903   7.7276   7.7642   7.9364   7.9426   8.1183
     8.4458   8.4738   8.8133   8.8476   9.2240   9.4829

          k = 0.1250 0.1250-0.5000 ( 21386 PWs)   bands (ev):

   -67.8134 -34.5929 -34.5929 -34.5929  -2.8966  -2.4568  -1.3369  -0.9723
    -0.8400  -0.6848  -0.1496   0.1310   0.2647   0.4263   0.5998   0.9437
     1.5330   1.7172   1.7671   1.8991   1.9926   2.1257   2.7778   3.1180
     3.3989   3.4597   3.4600   3.5080   4.4265   4.5195   4.5200   4.5261
     4.6997   4.7925   5.0331   5.1009   5.1613   5.2550   6.1205   6.1482
     6.1925   6.2135   6.3349   6.4537   6.6477   6.8488   7.0203   7.2048
     7.3244   7.3876   7.4606   7.4894   7.5670   7.6963   7.8040   7.8141
     8.8601   8.9232   9.1312   9.1707   9.1727   9.1745

          k = 0.1250 0.2500 0.2500 ( 21396 PWs)   bands (ev):

   -67.8134 -34.5929 -34.5929 -34.5929  -3.0444  -1.9299  -1.7782  -1.3108
    -0.6707  -0.3171  -0.1080  -0.0369   0.3480   0.4314   0.9225   0.9914
     1.1194   1.5363   1.5604   2.0366   2.0765   2.1728   3.0423   3.1115
     3.2181   3.2638   3.5865   3.6527   3.6858   4.2892   4.3972   4.5706
     4.7367   4.7438   5.2291   5.2586   5.3721   5.6802   5.7042   6.1697
     6.3016   6.3818   6.3832   6.5178   6.7608   6.8034   6.9239   7.1709
     7.4147   7.4635   7.7415   7.7918   8.0460   8.1578   8.2852   8.3142
     8.4670   8.5349   8.8777   8.8914   9.1565   9.2248

          k = 0.1250 0.2500 0.3750 ( 21425 PWs)   bands (ev):

   -67.8134 -34.5929 -34.5929 -34.5929  -2.9061  -2.1971  -1.7074  -1.2012
    -0.9644  -0.4948  -0.1162   0.0999   0.4652   0.6366   0.7273   1.0230
     1.1728   1.2727   1.7665   2.2171   2.2701   2.6526   2.7714   2.9331
     3.2972   3.6499   3.8041   3.8364   3.9038   4.0957   4.3421   4.4016
     4.4216   4.7560   5.0232   5.3051   5.3168   5.4544   5.6197   5.7854
     5.9848   6.0543   6.0893   6.4260   6.5238   6.6382   7.0223   7.0971
     7.3456   7.4456   7.6074   7.9349   8.0015   8.2672   8.3852   8.4230
     8.5611   8.6856   8.9562   9.0841   9.1453   9.1948

          k = 0.1250 0.2500-0.5000 ( 21404 PWs)   bands (ev):

   -67.8134 -34.5929 -34.5929 -34.5929  -2.8095  -2.3564  -1.6148  -1.2163
    -1.0094  -0.6514  -0.0368   0.2261   0.4014   0.5200   0.6737   1.0135
     1.2416   1.5839   1.8598   1.9284   2.3518   2.6746   2.9970   3.0537
     3.4005   3.5194   3.5699   3.7442   3.8675   4.2069   4.5331   4.5715
     4.6803   4.7708   4.8976   5.1325   5.1626   5.2126   5.4979   5.7552
     5.7598   5.9119   5.9789   6.3606   6.5640   6.7738   6.8426   6.9404
     7.3509   7.6123   7.8396   7.9126   8.0301   8.2321   8.3886   8.3941
     8.4227   8.5808   8.6521   8.9694   9.1864   9.3478

          k = 0.1250 0.3750 0.3750 ( 21399 PWs)   bands (ev):

   -67.8134 -34.5929 -34.5929 -34.5929  -2.7733  -2.0874  -1.9875  -1.4026
    -0.9841  -0.3730  -0.3142   0.1356   0.3080   0.7380   0.7843   1.2399
     1.3125   1.3994   1.8788   1.9738   2.7457   2.8950   2.9319   2.9590
     3.4956   3.5290   3.5396   3.6073   3.9514   4.0209   4.4369   4.5503
     4.6183   4.6789   4.9211   5.1140   5.1357   5.1658   5.5101   5.5310
     5.6087   5.6474   6.1644   6.1819   6.3003   6.6469   6.7208   6.7477
     7.3700   7.8181   7.9595   8.1013   8.2900   8.2982   8.3914   8.5776
     8.6468   8.7799   9.2099   9.2875   9.3117   9.3595

          k = 0.1250 0.3750-0.5000 ( 21438 PWs)   bands (ev):

   -67.8134 -34.5929 -34.5929 -34.5929  -2.6842  -2.1964  -1.9152  -1.5772
    -0.8942  -0.5040  -0.2312   0.1299   0.2410   0.5995   0.8782   1.2247
     1.3704   1.7259   2.0133   2.0676   2.6468   2.7004   2.9862   3.0433
     3.3396   3.3694   3.6737   3.7230   4.0728   4.2234   4.3255   4.5492
     4.5914   4.7273   4.7892   5.0270   5.0634   5.3407   5.3869   5.4528
     5.6057   5.7220   5.7893   5.8693   6.0578   6.1570   7.2981   7.3324
     7.4551   7.5316   7.6242   8.0233   8.2086   8.5058   8.5194   8.6653
     8.6948   9.0071   9.0528   9.0926   9.3156   9.3776

          k = 0.1250-0.5000-0.5000 ( 21408 PWs)   bands (ev):

   -67.8134 -34.5929 -34.5929 -34.5929  -2.6041  -2.0573  -2.0573  -1.7841
    -0.8014  -0.3832  -0.3832  -0.0562   0.3368   0.7164   0.7164   1.0476
     1.9136   2.1770   2.1770   2.3184   2.3732   2.4893   2.4893   2.6685
     3.6228   3.8217   3.8217   3.9296   3.9922   4.1292   4.1292   4.2693
     4.6689   4.9248   4.9248   5.0312   5.0850   5.1287   5.2316   5.2316
     5.4464   5.4464   5.5105   5.8065   6.5805   6.5805   6.5814   6.6941
     7.6222   8.0389   8.0389   8.2072   8.2423   8.2480   8.2480   8.5137
     9.2217   9.2532   9.2532   9.2651   9.3878   9.5197

          k = 0.2500 0.2500 0.2500 ( 21428 PWs)   bands (ev):

   -67.8134 -34.5929 -34.5929 -34.5929  -2.9528  -1.8947  -1.6746  -1.6746
    -0.6069  -0.5552  -0.5552   0.3419   0.5333   0.5333   0.5879   1.6248
     1.6375   1.6375   1.6449   1.6449   1.6717   2.7505   2.7505   2.7859
     3.6289   3.7367   3.7367   3.7610   3.7995   3.7995   4.7543   4.8150
     4.8342   4.8342   4.8573   4.8573   4.9132   4.9132   5.0309   5.9220
     5.9220   6.0664   6.8769   6.8769   6.9038   6.9505   6.9682   6.9682
     7.0285   8.0154   8.0348   8.0348   8.0764   8.0764   8.1025   8.1607
     8.2497   8.2497   9.2876   9.2876   9.3065   9.3248

          k = 0.2500 0.2500 0.3750 ( 21397 PWs)   bands (ev):

   -67.8134 -34.5929 -34.5929 -34.5929  -2.8172  -2.1045  -1.6809  -1.5041
    -0.9323  -0.8911  -0.4266   0.2281   0.5073   0.7010   1.1437   1.2648
     1.3652   1.7878   1.8027   2.2600   2.3217   2.4258   2.5064   2.8567
     3.4255   3.7672   3.8657   3.9197   3.9778   4.0274   4.3889   4.4646
     4.4670   4.5213   4.6646   4.9232   4.9888   5.1328   5.5352   5.5993
     5.6391   5.7878   6.0956   6.0965   6.9996   7.0677   7.2199   7.2613
     7.5374   7.5776   7.6791   7.7623   7.7821   8.3076   8.3844   8.7080
     8.7622   8.9031   8.9849   9.2222   9.2472   9.3219

          k = 0.2500 0.2500-0.5000 ( 21422 PWs)   bands (ev):

   -67.8134 -34.5929 -34.5929 -34.5929  -2.7243  -2.2557  -1.6166  -1.3190
    -1.1864  -1.0268  -0.3158   0.0541   0.5773   0.8820   1.0160   1.1752
     1.7409   1.9198   1.9628   2.0971   2.1953   2.3247   3.0547   3.1239
     3.1245   3.1750   3.8741   4.0134   4.0167   4.1058   4.3075   4.3132
     4.3269   4.5441   5.0040   5.1048   5.1472   5.1999   5.2234   5.3217
     5.4467   5.6682   6.3247   6.3939   6.4067   6.4659   7.1488   7.2132
     7.5453   7.5560   8.1470   8.2317   8.2999   8.3359   8.3562   8.5127
     8.6232   8.6235   8.9041   9.0037   9.4370   9.4435

          k = 0.2500 0.3750 0.3750 ( 21425 PWs)   bands (ev):

   -67.8134 -34.5929 -34.5929 -34.5929  -2.6881  -2.0018  -1.8837  -1.4555
    -1.2406  -0.7727  -0.7625  -0.1149   0.7055   1.1790   1.3982   1.4477
     1.5270   1.9293   1.9755   2.1614   2.4589   2.5072   2.8862   2.9672
     3.1501   3.2025   3.5998   3.6304   3.9207   4.1305   4.1574   4.5108
     4.5533   4.6057   4.6248   4.8046   4.8563   5.1067   5.2527   5.2987
     5.4867   6.1636   6.2592   6.3425   6.6992   6.7319   6.8561   6.9937
     7.6630   7.7637   7.9152   7.9257   8.1849   8.3689   8.3734   8.4753
     8.6160   9.1216   9.1515   9.1901   9.2872   9.4644

          k = 0.2500 0.3750-0.5000 ( 21448 PWs)   bands (ev):

   -67.8134 -34.5929 -34.5929 -34.5929  -2.6037  -2.0951  -1.8246  -1.4857
    -1.2833  -0.9445  -0.6542  -0.2961   0.8021   1.2372   1.4120   1.5857
     1.7628   1.9036   2.1080   2.1701   2.6189   2.7395   2.7853   2.9500
     3.0732   3.2703   3.3047   3.4284   3.8706   3.8966   4.1077   4.2689
     4.4429   4.5535   4.7246   4.7553   5.0951   5.1225   5.3765   5.4663
     5.8945   5.9284   6.0588   6.1497   6.3378   6.7152   7.0507   7.1095
     7.4753   7.5310   7.8522   8.2148   8.4337   8.5039   8.5446   8.6689
     8.6830   8.9767   9.1011   9.1520   9.1640   9.2086

          k = 0.2500-0.5000-0.5000 ( 21452 PWs)   bands (ev):

   -67.8134 -34.5929 -34.5929 -34.5929  -2.5288  -1.9535  -1.9535  -1.6924
    -1.1840  -0.8317  -0.8317  -0.4799   0.9051   1.3645   1.3645   1.6681
     2.0163   2.2721   2.2721   2.4197   2.4738   2.5829   2.5829   2.7559
     3.2159   3.4006   3.4006   3.4999   3.5614   3.7164   3.7164   3.8847
     4.2754   4.5656   4.5656   4.9658   5.2851   5.5384   5.5384   5.6556
     5.7113   5.8508   5.8508   6.0823   6.6770   6.6856   6.6856   6.8210
     7.7540   7.8256   7.8256   7.8761   8.4211   8.6479   8.6479   8.6877
     8.7572   8.8128   8.9567   8.9567   9.0923   9.0923

          k = 0.3750 0.3750 0.3750 ( 21434 PWs)   bands (ev):

   -67.8134 -34.5929 -34.5929 -34.5929  -2.5677  -1.9007  -1.7129  -1.7129
    -1.1403  -1.1403  -1.0863  -0.4632   1.1634   1.5780   1.5780   2.1256
     2.1256   2.1330   2.1533   2.1533   2.1628   2.7323   2.7323   2.8119
     3.0680   3.1840   3.1840   3.7162   3.7393   3.7587   3.7587   3.8031
     3.8031   4.3125   4.3125   4.6130   5.2226   5.3761   5.3761   5.9393
     5.9393   6.1276   6.8139   6.8237   6.8237   6.9481   6.9620   6.9620
     7.4853   7.5078   7.5078   7.6147   7.6147   7.7070   8.3257   8.4993
     8.4993   9.0312   9.0561   9.0561   9.2607   9.5991

          k = 0.3750 0.3750-0.5000 ( 21392 PWs)   bands (ev):

   -67.8134 -34.5929 -34.5929 -34.5929  -2.4933  -1.9323  -1.7320  -1.5275
    -1.3948  -1.2599  -1.0114  -0.6431   1.2929   1.7565   1.8937   2.0014
     2.1205   2.2582   2.2756   2.4174   2.5301   2.6222   2.8220   2.9214
     2.9237   3.0079   3.2225   3.3152   3.4457   3.5832   3.5879   3.6815
     3.8444   3.9310   4.0842   4.4274   5.4002   5.7735   6.0185   6.1051
     6.1102   6.1354   6.6463   6.7144   6.7753   6.8326   6.9942   7.0378
     7.3749   7.3782   7.5664   7.6409   7.6790   7.7594   8.2532   8.2641
     8.3160   8.3902   8.5987   8.9927   9.5285   9.8140

          k = 0.3750-0.5000-0.5000 ( 21412 PWs)   bands (ev):

   -67.8134 -34.5929 -34.5929 -34.5929  -2.4288  -1.7826  -1.7826  -1.5567
    -1.4767  -1.2097  -1.2097  -0.8176   1.4607   2.0739   2.0739   2.2168
     2.3329   2.4211   2.4211   2.5877   2.6392   2.7272   2.7272   2.8825
     2.9104   3.0551   3.0551   3.1323   3.1960   3.3715   3.3715   3.4522
     3.5289   3.6957   3.6957   4.1876   5.9546   6.2133   6.2133   6.3472
     6.4034   6.5302   6.5302   6.6842   6.8168   6.8273   6.8273   7.0153
     7.3855   7.4954   7.4954   7.5364   7.6385   7.8090   7.8090   7.9074
     7.9636   8.1249   8.1249   8.4103   9.8028  10.2534

          k =-0.5000-0.5000-0.5000 ( 21368 PWs)   bands (ev):

   -67.8134 -34.5929 -34.5929 -34.5929  -2.3734  -1.5970  -1.5970  -1.5970
    -1.4644  -1.4644  -1.4644  -0.9776   1.7237   2.5266   2.5266   2.5266
     2.7900   2.7900   2.8172   2.8172   2.8172   2.8567   2.8567   2.8567
     2.8633   2.8633   2.8633   2.8740   2.8740   2.8740   2.9512   2.9512
     3.2177   3.2177   3.2177   3.7883   6.5404   6.7559   6.7559   6.7559
     7.0420   7.0420   7.0420   7.0877   7.0877   7.0877   7.1119   7.1119
     7.1495   7.1495   7.1628   7.1628   7.1628   7.2685   7.2685   7.2685
     7.5095   7.5095   7.5095   7.8254  10.6969  10.9103

     the Fermi energy is     7.8948 ev

!    total energy              =    -287.87134852 Ry
     estimated scf accuracy    <          3.0E-11 Ry
     smearing contrib. (-TS)   =       0.00009047 Ry
     internal energy E=F+TS    =    -287.87143899 Ry

     The total energy is F=E-TS. E is the sum of the following terms:
     one-electron contribution =     -40.53498686 Ry
     hartree contribution      =      65.41274714 Ry
     xc contribution           =    -100.72591027 Ry
     ewald contribution        =    -212.02328900 Ry

     convergence has been achieved in   7 iterations

     Forces acting on atoms (cartesian axes, Ry/au):

     atom    1 type  1   force =     0.00000000    0.00000000    0.00000000
     atom    2 type  2   force =     0.00000000   -0.00016244   -0.00016244
     atom    3 type  2   force =    -0.00016244    0.00000000   -0.00016244
     atom    4 type  2   force =    -0.00016244   -0.00016244   -0.00000000
     atom    5 type  2   force =     0.00000000    0.00000000    0.00000000
     atom    6 type  2   force =     0.00000000   -0.00016244    0.00016244
     atom    7 type  2   force =    -0.00016244    0.00000000    0.00016244
     atom    8 type  2   force =     0.00024858    0.00024858    0.00000000
     atom    9 type  2   force =     0.00000000    0.00000000    0.00000000
     atom   10 type  2   force =     0.00000000    0.00016244   -0.00016244
     atom   11 type  2   force =     0.00024858   -0.00000000    0.00024858
     atom   12 type  2   force =    -0.00016244    0.00016244    0.00000000
     atom   13 type  2   force =     0.00000000    0.00000000    0.00000000
     atom   14 type  2   force =     0.00000000    0.00016244    0.00016244
     atom   15 type  2   force =     0.00024858   -0.00000000   -0.00024858
     atom   16 type  2   force =     0.00024858   -0.00024858   -0.00000000
     atom   17 type  2   force =     0.00000000    0.00000000    0.00000000
     atom   18 type  2   force =     0.00000000    0.00024858    0.00024858
     atom   19 type  2   force =     0.00016244    0.00000000   -0.00016244
     atom   20 type  2   force =     0.00016244   -0.00016244    0.00000000
     atom   21 type  2   force =     0.00000000    0.00000000    0.00000000
     atom   22 type  2   force =    -0.00000000    0.00024858   -0.00024858
     atom   23 type  2   force =     0.00016244    0.00000000    0.00016244
     atom   24 type  2   force =    -0.00024858    0.00024858    0.00000000
     atom   25 type  2   force =     0.00000000    0.00000000    0.00000000
     atom   26 type  2   force =     0.00000000   -0.00024858    0.00024858
     atom   27 type  2   force =    -0.00024858    0.00000000    0.00024858
     atom   28 type  2   force =     0.00016244    0.00016244   -0.00000000
     atom   29 type  3   force =     0.00000000    0.00000000    0.00000000
     atom   30 type  2   force =    -0.00000000   -0.00024858   -0.00024858
     atom   31 type  2   force =    -0.00024858    0.00000000   -0.00024858
     atom   32 type  2   force =    -0.00024858   -0.00024858    0.00000000

     Total force =     0.001455     Total SCF correction =     0.000005


     Computing stress (Cartesian axis) and pressure

          total   stress  (Ry/bohr**3)                   (kbar)     P=       -2.44
  -0.00001655   0.00000000   0.00000000           -2.44        0.00        0.00
   0.00000000  -0.00001655   0.00000000            0.00       -2.44        0.00
   0.00000000   0.00000000  -0.00001655            0.00        0.00       -2.44

     Energy error            =      2.7E-06
     Gradient error          =      2.5E-04

     bfgs converged in   7 scf cycles and   6 bfgs steps
     (criteria: energy <  1.0E-04 Ry, force <  1.0E-03 Ry/Bohr)

     End of BFGS Geometry Optimization

     Final energy   =    -287.8713485231 Ry

     File qe_tmp/Al30MgSi_far.bfgs deleted, as requested
Begin final coordinates

ATOMIC_POSITIONS (angstrom)
Mg            0.0000000000        0.0000000000        0.0000000000
Al            0.0000000000        2.0451403163        2.0451403163
Al            2.0451403163       -0.0000000000        2.0451403163
Al            2.0451403163        2.0451403163        0.0000000000
Al            0.0000000000        0.0000000000        4.0500000000
Al            0.0000000000        2.0451403163        6.0548596837
Al            2.0451403163        0.0000000000        6.0548596837
Al            2.0372846947        2.0372846947        4.0500000000
Al            0.0000000000        4.0500000000        0.0000000000
Al           -0.0000000000        6.0548596837        2.0451403163
Al            2.0372846947        4.0500000000        2.0372846947
Al            2.0451403163        6.0548596837       -0.0000000000
Al            0.0000000000        4.0500000000        4.0500000000
Al           -0.0000000000        6.0548596837        6.0548596837
Al            2.0372846947        4.0500000000        6.0627153053
Al            2.0372846947        6.0627153053        4.0500000000
Al            4.0500000000        0.0000000000        0.0000000000
Al            4.0500000000        2.0372846947        2.0372846947
Al            6.0548596837        0.0000000000        2.0451403163
Al            6.0548596837        2.0451403163       -0.0000000000
Al            4.0500000000        0.0000000000        4.0500000000
Al            4.0500000000        2.0372846947        6.0627153053
Al            6.0548596837        0.0000000000        6.0548596837
Al            6.0627153053        2.0372846947        4.0500000000
Al            4.0500000000        4.0500000000        0.0000000000
Al            4.0500000000        6.0627153053        2.0372846947
Al            6.0627153053        4.0500000000        2.0372846947
Al            6.0548596837        6.0548596837        0.0000000000
Si            4.0500000000        4.0500000000        4.0500000000
Al            4.0500000000        6.0627153053        6.0627153053
Al            6.0627153053        4.0500000000        6.0627153053
Al            6.0627153053        6.0627153053        4.0500000000
End final coordinates



     Writing output data file qe_tmp/Al30MgSi_far.save/

     init_run     :    401.92s CPU    412.58s WALL (       1 calls)
     electrons    :  53744.18s CPU  54491.71s WALL (       7 calls)
     update_pot   :      9.48s CPU     11.80s WALL (       6 calls)
     forces       :   1053.69s CPU   1085.95s WALL (       7 calls)
     stress       :   1800.62s CPU   1871.21s WALL (       7 calls)

     Called by init_run:
     wfcinit      :    392.57s CPU    395.08s WALL (       1 calls)
     potinit      :      0.93s CPU      1.16s WALL (       1 calls)
     hinit0       :      2.12s CPU      2.28s WALL (       1 calls)

     Called by electrons:
     c_bands      :  48821.85s CPU  49122.60s WALL (      72 calls)
     sum_band     :   4542.15s CPU   4782.06s WALL (      72 calls)
     v_of_rho     :     58.93s CPU     97.98s WALL (      74 calls)
     newd         :    346.25s CPU    518.92s WALL (      74 calls)
     mix_rho      :      8.35s CPU     14.56s WALL (      72 calls)

     Called by c_bands:
     init_us_2    :    243.40s CPU    261.55s WALL (    5565 calls)
     cegterg      :  47793.69s CPU  47939.54s WALL (    2520 calls)

     Called by *egterg:
     cdiaghg      :    159.92s CPU    161.11s WALL (   15198 calls)
     h_psi        :  24850.18s CPU  24919.37s WALL (   15618 calls)
     s_psi        :   8025.67s CPU   8027.80s WALL (   15618 calls)
     g_psi        :    219.33s CPU    219.53s WALL (   13063 calls)

     Called by h_psi:
     h_psi:calbec :   7498.77s CPU   7501.02s WALL (   15618 calls)
     vloc_psi     :   9270.29s CPU   9293.76s WALL (   15618 calls)
     add_vuspsi   :   8032.77s CPU   8034.69s WALL (   15618 calls)

     General routines
     calbec       :  11014.72s CPU  11017.73s WALL (   19363 calls)
     fft          :     29.54s CPU     30.97s WALL (    1134 calls)
     ffts         :      1.24s CPU      1.29s WALL (     146 calls)
     fftw         :   9564.48s CPU   9590.19s WALL ( 1142980 calls)
     interpolate  :      2.86s CPU      2.97s WALL (      74 calls)

     Parallel routines

     PWSCF        :     15h50m CPU     16h 5m WALL


   This run was terminated on:  10:53:10  20Jul2026            

=------------------------------------------------------------------------------=
   JOB DONE.
=------------------------------------------------------------------------------=
