
     Program PWSCF v.6.7MaX starts on 14Jul2026 at 10: 5:58 

     This program is part of the open-source Quantum ESPRESSO suite
     for quantum simulation of materials; please cite
         "P. Giannozzi et al., J. Phys.:Condens. Matter 21 395502 (2009);
         "P. Giannozzi et al., J. Phys.:Condens. Matter 29 465901 (2017);
          URL http://www.quantum-espresso.org", 
     in publications or presentations arising from this work. More details at
     http://www.quantum-espresso.org/quote

     Parallel version (MPI), running on     1 processors

     MPI processes distributed on     1 nodes
     Waiting for input...
     Reading input from standard input
Warning: card &CELL ignored
Warning: card    PRESS_CONV_THR   = 0.5 ignored
Warning: card / ignored
Warning: card &FCP ignored
Warning: card / ignored
Warning: card &RISM ignored
Warning: card / ignored

     Current dimensions of program PWSCF are:
     Max number of different atomic species (ntypx) = 10
     Max number of k-points (npk) =  40000
     Max angular momentum in pseudopotentials (lmaxx) =  3

     IMPORTANT: XC functional enforced from input :
     Exchange-correlation= PBE
                           (   1   4   3   4   0   0   0)
     Any further DFT definition will be discarded
     Please, verify this is what you really want


     Subspace diagonalization in iterative solution of the eigenvalue problem:
     a serial algorithm will be used

     Message from routine setup:
     using ibrav=0 with symmetry is DISCOURAGED, use correct ibrav instead

     G-vector sticks info
     --------------------
     sticks:   dense  smooth     PW     G-vecs:    dense   smooth      PW
     Sum         649     313    109                10849     3839     749



     bravais-lattice index     =            0
     lattice parameter (alat)  =       5.4118  a.u.
     unit-cell volume          =     112.0732 (a.u.)^3
     number of atoms/cell      =            1
     number of atomic types    =            1
     number of electrons       =         3.00
     number of Kohn-Sham states=            6
     kinetic-energy cutoff     =      40.0000  Ry
     charge density cutoff     =     320.0000  Ry
     scf convergence threshold =      1.0E-08
     mixing beta               =       0.7000
     number of iterations used =            8  plain     mixing
     Exchange-correlation= PBE
                           (   1   4   3   4   0   0   0)

     celldm(1)=   5.411765  celldm(2)=   0.000000  celldm(3)=   0.000000
     celldm(4)=   0.000000  celldm(5)=   0.000000  celldm(6)=   0.000000

     crystal axes: (cart. coord. in units of alat)
               a(1) = (   0.000000   0.707107   0.707107 )  
               a(2) = (   0.707107   0.000000   0.707107 )  
               a(3) = (   0.707107   0.707107   0.000000 )  

     reciprocal axes: (cart. coord. in units 2 pi/alat)
               b(1) = ( -0.707107  0.707107  0.707107 )  
               b(2) = (  0.707107 -0.707107  0.707107 )  
               b(3) = (  0.707107  0.707107 -0.707107 )  


     PseudoPot. # 1 for Al read from file:
     ../../../pseudos/Al.us.pbe.z_3.ld1.psl.v1.0.0-low.upf
     MD5 check sum: ce85e4ab7f99e505e5d81ad4c7630c6b
     Pseudo is Ultrasoft + core correction, Zval =  3.0
     Generated using &quot;atomic&quot; code by A. Dal Corso  v.6.3MaX
     Using radial grid of 1135 points,  4 beta functions with: 
                l(1) =   0
                l(2) =   0
                l(3) =   1
                l(4) =   1
     Q(r) pseudized with 0 coefficients 


     atomic species   valence    mass     pseudopotential
        Al             3.00    26.98154     Al( 1.00)

     48 Sym. Ops., with inversion, found



   Cartesian axes

     site n.     atom                  positions (alat units)
         1           Al  tau(   1) = (   0.0000000   0.0000000   0.0000000  )

     number of k points=    29  Marzari-Vanderbilt smearing, width (Ry)=  0.0200
                       cart. coord. in units 2pi/alat
        k(    1) = (   0.0000000   0.0000000   0.0000000), wk =   0.0039062
        k(    2) = (   0.0883883   0.0883883  -0.0883883), wk =   0.0312500
        k(    3) = (   0.1767767   0.1767767  -0.1767767), wk =   0.0312500
        k(    4) = (   0.2651650   0.2651650  -0.2651650), wk =   0.0312500
        k(    5) = (  -0.3535534  -0.3535534   0.3535534), wk =   0.0156250
        k(    6) = (   0.1767767   0.0000000   0.0000000), wk =   0.0234375
        k(    7) = (   0.2651650   0.0883883  -0.0883883), wk =   0.0937500
        k(    8) = (   0.3535534   0.1767767  -0.1767767), wk =   0.0937500
        k(    9) = (  -0.2651650  -0.4419417   0.4419417), wk =   0.0937500
        k(   10) = (  -0.1767767  -0.3535534   0.3535534), wk =   0.0937500
        k(   11) = (  -0.0883883  -0.2651650   0.2651650), wk =   0.0937500
        k(   12) = (   0.0000000  -0.1767767   0.1767767), wk =   0.0468750
        k(   13) = (   0.3535534   0.0000000   0.0000000), wk =   0.0234375
        k(   14) = (   0.4419417   0.0883883  -0.0883883), wk =   0.0937500
        k(   15) = (  -0.1767767  -0.5303301   0.5303301), wk =   0.0937500
        k(   16) = (  -0.0883883  -0.4419417   0.4419417), wk =   0.0937500
        k(   17) = (   0.0000000  -0.3535534   0.3535534), wk =   0.0468750
        k(   18) = (   0.5303301   0.0000000   0.0000000), wk =   0.0234375
        k(   19) = (  -0.0883883  -0.6187184   0.6187184), wk =   0.0937500
        k(   20) = (   0.0000000  -0.5303301   0.5303301), wk =   0.0468750
        k(   21) = (  -0.7071068   0.0000000   0.0000000), wk =   0.0117188
        k(   22) = (   0.3535534   0.1767767   0.0000000), wk =   0.0937500
        k(   23) = (  -0.2651650  -0.4419417   0.6187184), wk =   0.1875000
        k(   24) = (  -0.1767767  -0.3535534   0.5303301), wk =   0.0937500
        k(   25) = (  -0.1767767  -0.5303301   0.7071068), wk =   0.0937500
        k(   26) = (  -0.0883883  -0.4419417   0.6187184), wk =   0.1875000
        k(   27) = (   0.0000000  -0.3535534   0.5303301), wk =   0.0937500
        k(   28) = (  -0.7071068   0.1767767   0.0000000), wk =   0.0468750
        k(   29) = (  -0.7071068   0.3535534   0.0000000), wk =   0.0234375

     Dense  grid:    10849 G-vectors     FFT dimensions: (  32,  32,  32)

     Smooth grid:     3839 G-vectors     FFT dimensions: (  24,  24,  24)

     Estimated max dynamical RAM per process >      16.77 MB

     Initial potential from superposition of free atoms

     starting charge    2.99771, renormalised to    3.00000
     Starting wfcs are    4 randomized atomic wfcs +    2 random wfcs

     total cpu time spent up to now is        0.7 secs

     Self-consistent Calculation

     iteration #  1     ecut=    40.00 Ry     beta= 0.70
     Davidson diagonalization with overlap
     ethr =  1.00E-02,  avg # of iterations =  6.0

     Threshold (ethr) on eigenvalues was too large:
     Diagonalizing with lowered threshold

     Davidson diagonalization with overlap
     ethr =  1.93E-04,  avg # of iterations =  3.4

     total cpu time spent up to now is        1.6 secs

     total energy              =      -5.03844099 Ry
     estimated scf accuracy    <       0.00568024 Ry

     iteration #  2     ecut=    40.00 Ry     beta= 0.70
     Davidson diagonalization with overlap
     ethr =  1.89E-04,  avg # of iterations =  1.0

     total cpu time spent up to now is        1.9 secs

     total energy              =      -5.03843076 Ry
     estimated scf accuracy    <       0.00040350 Ry

     iteration #  3     ecut=    40.00 Ry     beta= 0.70
     Davidson diagonalization with overlap
     ethr =  1.35E-05,  avg # of iterations =  2.5

     total cpu time spent up to now is        2.3 secs

     total energy              =      -5.03844918 Ry
     estimated scf accuracy    <       0.00000123 Ry

     iteration #  4     ecut=    40.00 Ry     beta= 0.70
     Davidson diagonalization with overlap
     ethr =  4.10E-08,  avg # of iterations =  3.7

     total cpu time spent up to now is        2.7 secs

     total energy              =      -5.03845100 Ry
     estimated scf accuracy    <       0.00000002 Ry

     iteration #  5     ecut=    40.00 Ry     beta= 0.70
     Davidson diagonalization with overlap
     ethr =  8.20E-10,  avg # of iterations =  1.8

     total cpu time spent up to now is        3.1 secs

     End of self-consistent calculation

          k = 0.0000 0.0000 0.0000 (   531 PWs)   bands (ev):

    -3.2535  20.4196  20.4197  21.8450  21.8450  21.8450

          k = 0.0884 0.0884-0.0884 (   495 PWs)   bands (ev):

    -2.8310  16.1237  19.4620  19.4621  22.4810  23.3912

          k = 0.1768 0.1768-0.1768 (   483 PWs)   bands (ev):

    -1.5709  11.2670  18.6946  18.6947  22.1297  22.5206

          k = 0.2652 0.2652-0.2652 (   477 PWs)   bands (ev):

     0.5056   6.9762  18.6023  18.6023  20.5432  20.5433

          k =-0.3536-0.3536 0.3536 (   476 PWs)   bands (ev):

     3.2675   3.4710  19.1681  19.1681  19.2694  19.2694

          k = 0.1768 0.0000 0.0000 (   495 PWs)   bands (ev):

    -2.6904  17.7059  17.7059  17.9738  20.6988  22.4166

          k = 0.2652 0.0884-0.0884 (   484 PWs)   bands (ev):

    -1.7104  13.1230  16.6432  18.1639  19.3885  21.9078

          k = 0.3536 0.1768-0.1768 (   471 PWs)   bands (ev):

     0.0923   8.6710  16.2955  17.0237  17.9975  24.0002

          k =-0.2652-0.4419 0.4419 (   473 PWs)   bands (ev):

     2.6850   4.8508  15.4005  16.6668  18.4350  22.4926

          k =-0.1768-0.3536 0.3536 (   477 PWs)   bands (ev):

     1.7368   6.0422  14.5213  17.7575  19.6146  21.6535

          k =-0.0884-0.2652 0.2652 (   485 PWs)   bands (ev):

    -0.5983  10.0687  14.4216  19.5472  21.4945  21.5034

          k = 0.0000-0.1768 0.1768 (   489 PWs)   bands (ev):

    -2.1296  14.2689  15.4952  21.5124  21.7934  23.1368

          k = 0.3536 0.0000 0.0000 (   480 PWs)   bands (ev):

    -1.0145  15.3125  15.3199  15.3199  16.0664  18.7742

          k = 0.4419 0.0884-0.0884 (   478 PWs)   bands (ev):

     0.5039  11.0534  13.4018  14.7228  16.1943  20.1907

          k =-0.1768-0.5303 0.5303 (   477 PWs)   bands (ev):

     2.8147   7.0876  11.4806  14.8491  16.5347  23.8516

          k =-0.0884-0.4419 0.4419 (   479 PWs)   bands (ev):

     3.7607   5.8702  10.3600  15.6988  17.5217  25.4020

          k = 0.0000-0.3536 0.3536 (   481 PWs)   bands (ev):

     1.1905   9.0795  10.5729  17.2716  19.2317  24.7501

          k = 0.5303 0.0000 0.0000 (   472 PWs)   bands (ev):

     1.7297  10.4169  13.6598  13.8800  13.8800  17.3491

          k =-0.0884-0.6187 0.6187 (   474 PWs)   bands (ev):

     3.7259   8.2114  10.0433  13.7619  15.1333  19.2557

          k = 0.0000-0.5303 0.5303 (   478 PWs)   bands (ev):

     5.9637   6.4899   7.4326  14.3674  16.0113  23.4380

          k =-0.7071 0.0000 0.0000 (   468 PWs)   bands (ev):

     4.9280   6.2424  13.1043  13.4003  13.4003  16.8407

          k = 0.3536 0.1768 0.0000 (   482 PWs)   bands (ev):

    -0.4601  11.6805  13.0688  16.5799  19.9356  21.6808

          k =-0.2652-0.4419 0.6187 (   481 PWs)   bands (ev):

     1.5992   7.9756  12.3982  14.4495  20.5522  22.6301

          k =-0.1768-0.3536 0.5303 (   476 PWs)   bands (ev):

     4.3114   4.5591  12.8002  13.2524  21.0697  21.5096

          k =-0.1768-0.5303 0.7071 (   471 PWs)   bands (ev):

     2.2733  10.1210  10.8315  11.7022  18.4476  20.4337

          k =-0.0884-0.4419 0.6187 (   478 PWs)   bands (ev):

     4.7897   6.9152   9.2905  11.4405  19.6229  23.7362

          k = 0.0000-0.3536 0.5303 (   481 PWs)   bands (ev):

     3.8910   7.5205   8.9802  12.5440  20.8320  24.0671

          k =-0.7071 0.1768 0.0000 (   478 PWs)   bands (ev):

     5.4456   6.7825   9.6006  11.0923  17.9402  19.9802

          k =-0.7071 0.3536 0.0000 (   488 PWs)   bands (ev):

     7.0012   7.0012   8.0212   8.9108  23.5952  23.5959

     the Fermi energy is     7.8016 ev

!    total energy              =      -5.03845101 Ry
     estimated scf accuracy    <          9.8E-09 Ry
     smearing contrib. (-TS)   =       0.00005940 Ry
     internal energy E=F+TS    =      -5.03851041 Ry

     The total energy is F=E-TS. E is the sum of the following terms:
     one-electron contribution =       2.93429569 Ry
     hartree contribution      =       0.00647047 Ry
     xc contribution           =      -2.58771096 Ry
     ewald contribution        =      -5.39156561 Ry

     convergence has been achieved in   5 iterations

     Forces acting on atoms (cartesian axes, Ry/au):

     atom    1 type  1   force =     0.00000000    0.00000000    0.00000000

     Total force =     0.000000     Total SCF correction =     0.000000


     Computing stress (Cartesian axis) and pressure

          total   stress  (Ry/bohr**3)                   (kbar)     P=       -4.92
  -0.00003341  -0.00000000   0.00000000           -4.92       -0.00        0.00
  -0.00000000  -0.00003341  -0.00000000           -0.00       -4.92       -0.00
   0.00000000  -0.00000000  -0.00003341            0.00       -0.00       -4.92


     Writing output data file qe_tmp/conv_cutoff_al_ecut40.save/

     init_run     :      0.35s CPU      0.37s WALL (       1 calls)
     electrons    :      1.76s CPU      2.45s WALL (       1 calls)
     forces       :      0.04s CPU      0.04s WALL (       1 calls)
     stress       :      0.18s CPU      0.18s WALL (       1 calls)

     Called by init_run:
     wfcinit      :      0.07s CPU      0.08s WALL (       1 calls)
     potinit      :      0.03s CPU      0.03s WALL (       1 calls)
     hinit0       :      0.24s CPU      0.24s WALL (       1 calls)

     Called by electrons:
     c_bands      :      1.41s CPU      2.02s WALL (       6 calls)
     sum_band     :      0.24s CPU      0.25s WALL (       6 calls)
     v_of_rho     :      0.10s CPU      0.10s WALL (       6 calls)
     newd         :      0.03s CPU      0.03s WALL (       6 calls)
     mix_rho      :      0.00s CPU      0.00s WALL (       6 calls)

     Called by c_bands:
     init_us_2    :      0.05s CPU      0.06s WALL (     435 calls)
     cegterg      :      1.29s CPU      1.33s WALL (     174 calls)

     Called by *egterg:
     cdiaghg      :      0.05s CPU      0.05s WALL (     676 calls)
     h_psi        :      1.03s CPU      1.06s WALL (     734 calls)
     s_psi        :      0.03s CPU      0.03s WALL (     734 calls)
     g_psi        :      0.03s CPU      0.03s WALL (     531 calls)

     Called by h_psi:
     h_psi:calbec :      0.03s CPU      0.03s WALL (     734 calls)
     vloc_psi     :      0.96s CPU      0.98s WALL (     734 calls)
     add_vuspsi   :      0.03s CPU      0.03s WALL (     734 calls)

     General routines
     calbec       :      0.05s CPU      0.05s WALL (    1053 calls)
     fft          :      0.03s CPU      0.03s WALL (     102 calls)
     ffts         :      0.01s CPU      0.01s WALL (      12 calls)
     fftw         :      0.95s CPU      0.97s WALL (    7062 calls)
     interpolate  :      0.01s CPU      0.01s WALL (       6 calls)

     Parallel routines

     PWSCF        :      2.46s CPU      3.85s WALL


   This run was terminated on:  10: 6: 2  14Jul2026            

=------------------------------------------------------------------------------=
   JOB DONE.
=------------------------------------------------------------------------------=
