
     Program PWSCF v.6.7MaX starts on 13Jul2026 at 22: 3:46 

     This program is part of the open-source Quantum ESPRESSO suite
     for quantum simulation of materials; please cite
         "P. Giannozzi et al., J. Phys.:Condens. Matter 21 395502 (2009);
         "P. Giannozzi et al., J. Phys.:Condens. Matter 29 465901 (2017);
          URL http://www.quantum-espresso.org", 
     in publications or presentations arising from this work. More details at
     http://www.quantum-espresso.org/quote

     Parallel version (MPI), running on     1 processors

     MPI processes distributed on     1 nodes
     Waiting for input...
     Reading input from standard input
Warning: card &CELL ignored
Warning: card    PRESS_CONV_THR   = 1.0 ignored
Warning: card / ignored
Warning: card &FCP ignored
Warning: card / ignored
Warning: card &RISM ignored
Warning: card / ignored

     Current dimensions of program PWSCF are:
     Max number of different atomic species (ntypx) = 10
     Max number of k-points (npk) =  40000
     Max angular momentum in pseudopotentials (lmaxx) =  3

     IMPORTANT: XC functional enforced from input :
     Exchange-correlation= PBE
                           (   1   4   3   4   0   0   0)
     Any further DFT definition will be discarded
     Please, verify this is what you really want


     Subspace diagonalization in iterative solution of the eigenvalue problem:
     a serial algorithm will be used

     Message from routine setup:
     using ibrav=0 with symmetry is DISCOURAGED, use correct ibrav instead

     G-vector sticks info
     --------------------
     sticks:   dense  smooth     PW     G-vecs:    dense   smooth      PW
     Sum         313     163     55                 3839     1363     283



     bravais-lattice index     =            0
     lattice parameter (alat)  =       5.4118  a.u.
     unit-cell volume          =     112.0732 (a.u.)^3
     number of atoms/cell      =            1
     number of atomic types    =            1
     number of electrons       =         3.00
     number of Kohn-Sham states=            6
     kinetic-energy cutoff     =      20.0000  Ry
     charge density cutoff     =     160.0000  Ry
     scf convergence threshold =      1.0E-06
     mixing beta               =       0.7000
     number of iterations used =            8  plain     mixing
     Exchange-correlation= PBE
                           (   1   4   3   4   0   0   0)

     celldm(1)=   5.411765  celldm(2)=   0.000000  celldm(3)=   0.000000
     celldm(4)=   0.000000  celldm(5)=   0.000000  celldm(6)=   0.000000

     crystal axes: (cart. coord. in units of alat)
               a(1) = (   0.000000   0.707107   0.707107 )  
               a(2) = (   0.707107   0.000000   0.707107 )  
               a(3) = (   0.707107   0.707107   0.000000 )  

     reciprocal axes: (cart. coord. in units 2 pi/alat)
               b(1) = ( -0.707107  0.707107  0.707107 )  
               b(2) = (  0.707107 -0.707107  0.707107 )  
               b(3) = (  0.707107  0.707107 -0.707107 )  


     PseudoPot. # 1 for Al read from file:
     ../../../pseudos/Al.us.pbe.z_3.ld1.psl.v1.0.0-low.upf
     MD5 check sum: ce85e4ab7f99e505e5d81ad4c7630c6b
     Pseudo is Ultrasoft + core correction, Zval =  3.0
     Generated using &quot;atomic&quot; code by A. Dal Corso  v.6.3MaX
     Using radial grid of 1135 points,  4 beta functions with: 
                l(1) =   0
                l(2) =   0
                l(3) =   1
                l(4) =   1
     Q(r) pseudized with 0 coefficients 


     atomic species   valence    mass     pseudopotential
        Al             3.00    26.98154     Al( 1.00)

     48 Sym. Ops., with inversion, found



   Cartesian axes

     site n.     atom                  positions (alat units)
         1           Al  tau(   1) = (   0.0000000   0.0000000   0.0000000  )

     number of k points=     3  Marzari-Vanderbilt smearing, width (Ry)=  0.0200
                       cart. coord. in units 2pi/alat
        k(    1) = (   0.0000000   0.0000000   0.0000000), wk =   0.2500000
        k(    2) = (  -0.3535534  -0.3535534   0.3535534), wk =   1.0000000
        k(    3) = (  -0.7071068   0.0000000   0.0000000), wk =   0.7500000

     Dense  grid:     3839 G-vectors     FFT dimensions: (  24,  24,  24)

     Smooth grid:     1363 G-vectors     FFT dimensions: (  15,  15,  15)

     Estimated max dynamical RAM per process >       5.83 MB

     Initial potential from superposition of free atoms

     starting charge    2.99771, renormalised to    3.00000
     Starting wfcs are    4 randomized atomic wfcs +    2 random wfcs

     total cpu time spent up to now is        0.5 secs

     Self-consistent Calculation

     iteration #  1     ecut=    20.00 Ry     beta= 0.70
     Davidson diagonalization with overlap
     ethr =  1.00E-02,  avg # of iterations =  5.0

     Threshold (ethr) on eigenvalues was too large:
     Diagonalizing with lowered threshold

     Davidson diagonalization with overlap
     ethr =  2.71E-04,  avg # of iterations =  1.7

     total cpu time spent up to now is        0.5 secs

     total energy              =      -5.08646962 Ry
     estimated scf accuracy    <       0.00811764 Ry

     iteration #  2     ecut=    20.00 Ry     beta= 0.70
     Davidson diagonalization with overlap
     ethr =  2.71E-04,  avg # of iterations =  1.0

     total cpu time spent up to now is        0.6 secs

     total energy              =      -5.08642271 Ry
     estimated scf accuracy    <       0.00063953 Ry

     iteration #  3     ecut=    20.00 Ry     beta= 0.70
     Davidson diagonalization with overlap
     ethr =  2.13E-05,  avg # of iterations =  3.7

     total cpu time spent up to now is        0.6 secs

     total energy              =      -5.08643642 Ry
     estimated scf accuracy    <       0.00000110 Ry

     iteration #  4     ecut=    20.00 Ry     beta= 0.70
     Davidson diagonalization with overlap
     ethr =  3.65E-08,  avg # of iterations =  2.7

     total cpu time spent up to now is        0.6 secs

     End of self-consistent calculation

          k = 0.0000 0.0000 0.0000 (   169 PWs)   bands (ev):

    -3.2397  20.5355  20.5355  21.8575  21.8575  21.8575

          k =-0.3536-0.3536 0.3536 (   168 PWs)   bands (ev):

     3.2791   3.4918  19.1837  19.1837  19.3722  19.3724

          k =-0.7071 0.0000 0.0000 (   174 PWs)   bands (ev):

     4.9431   6.2619  13.1795  13.4115  13.4115  16.8782

     the Fermi energy is     5.1937 ev

!    total energy              =      -5.08643771 Ry
     estimated scf accuracy    <          5.7E-09 Ry
     smearing contrib. (-TS)   =       0.00122324 Ry
     internal energy E=F+TS    =      -5.08766095 Ry

     The total energy is F=E-TS. E is the sum of the following terms:
     one-electron contribution =       2.88372395 Ry
     hartree contribution      =       0.01086514 Ry
     xc contribution           =      -2.59068438 Ry
     ewald contribution        =      -5.39156566 Ry

     convergence has been achieved in   4 iterations

     Forces acting on atoms (cartesian axes, Ry/au):

     atom    1 type  1   force =     0.00000000    0.00000000    0.00000000

     Total force =     0.000000     Total SCF correction =     0.000000


     Computing stress (Cartesian axis) and pressure

          total   stress  (Ry/bohr**3)                   (kbar)     P=      -61.24
  -0.00041631  -0.00000000  -0.00000000          -61.24       -0.00       -0.00
  -0.00000000  -0.00041631  -0.00000000           -0.00      -61.24       -0.00
  -0.00000000   0.00000000  -0.00041631           -0.00        0.00      -61.24


     Writing output data file qe_tmp/smoke_al_fcc_primitive_scf.save/

     init_run     :      0.20s CPU      0.21s WALL (       1 calls)
     electrons    :      0.11s CPU      0.20s WALL (       1 calls)
     forces       :      0.02s CPU      0.02s WALL (       1 calls)
     stress       :      0.05s CPU      0.05s WALL (       1 calls)

     Called by init_run:
     wfcinit      :      0.00s CPU      0.01s WALL (       1 calls)
     potinit      :      0.01s CPU      0.02s WALL (       1 calls)
     hinit0       :      0.17s CPU      0.17s WALL (       1 calls)

     Called by electrons:
     c_bands      :      0.04s CPU      0.08s WALL (       5 calls)
     sum_band     :      0.02s CPU      0.02s WALL (       5 calls)
     v_of_rho     :      0.04s CPU      0.04s WALL (       5 calls)
     newd         :      0.01s CPU      0.01s WALL (       5 calls)
     mix_rho      :      0.00s CPU      0.00s WALL (       5 calls)

     Called by c_bands:
     init_us_2    :      0.00s CPU      0.00s WALL (      39 calls)
     cegterg      :      0.03s CPU      0.03s WALL (      15 calls)

     Called by *egterg:
     cdiaghg      :      0.00s CPU      0.00s WALL (      54 calls)
     h_psi        :      0.02s CPU      0.02s WALL (      60 calls)
     s_psi        :      0.00s CPU      0.00s WALL (      60 calls)
     g_psi        :      0.00s CPU      0.00s WALL (      42 calls)

     Called by h_psi:
     h_psi:calbec :      0.00s CPU      0.00s WALL (      60 calls)
     vloc_psi     :      0.01s CPU      0.01s WALL (      60 calls)
     add_vuspsi   :      0.00s CPU      0.00s WALL (      60 calls)

     General routines
     calbec       :      0.00s CPU      0.00s WALL (      90 calls)
     fft          :      0.03s CPU      0.03s WALL (      89 calls)
     ffts         :      0.00s CPU      0.00s WALL (      10 calls)
     fftw         :      0.01s CPU      0.01s WALL (     604 calls)
     interpolate  :      0.00s CPU      0.00s WALL (       5 calls)

     Parallel routines

     PWSCF        :      0.54s CPU      1.04s WALL


   This run was terminated on:  22: 3:47  13Jul2026            

=------------------------------------------------------------------------------=
   JOB DONE.
=------------------------------------------------------------------------------=
